 argument  1 = water.nw



============================== echo of input deck ==============================
START water_MO
MEMORY TOTAL 4 GB
ECHO
TITLE "water MO calculation"

CHARGE 0
GEOMETRY UNITS ANGSTROMS
   O      0.00000000    0.00000000    0.00000000
   H      0.00000000    1.43042809   -1.10715266
   H      0.00000000   -1.43042809   -1.10715266
END

BASIS SPHERICAL
 * LIBRARY 6-31G*
END

DFT
 XC B3LYP
END

DRIVER
 MAXITER 256
 INHESS 1
 PRINT DEFAULT
END

TASK DFT OPTIMIZE
TASK DFT ENERGY
TASK DFT FREQ
================================================================================


                                         
                                         


             Northwest Computational Chemistry Package (NWChem) 7.2.3
             --------------------------------------------------------


                    Environmental Molecular Sciences Laboratory
                       Pacific Northwest National Laboratory
                                Richland, WA 99352

                              Copyright (c) 1994-2022
                       Pacific Northwest National Laboratory
                            Battelle Memorial Institute

             NWChem is an open-source computational chemistry package
                        distributed under the terms of the
                      Educational Community License (ECL) 2.0
             A copy of the license is included with this distribution
                              in the LICENSE.TXT file

                                  ACKNOWLEDGMENT
                                  --------------

            This software and its documentation were developed at the
            EMSL at Pacific Northwest National Laboratory, a multiprogram
            national laboratory, operated for the U.S. Department of Energy
            by Battelle under Contract Number DE-AC05-76RL01830. Support
            for this work was provided by the Department of Energy Office
            of Biological and Environmental Research, Office of Basic
            Energy Sciences, and the Office of Advanced Scientific Computing.


           Job information
           ---------------

    hostname        = cpu5715
    program         = /sqfs/work/I2002/u6b188/src/nwchem-7.2.3-release/bin/LINUX64/nwchem
    date            = Mon Feb 23 16:15:11 2026

    compiled        = 金_12月_05_16:51:39_2025
    source          = /sqfs/work/I2002/u6b188/src/nwchem-7.2.3-release
    nwchem branch   = 7.2.3
    nwchem revision = N/A
    ga revision     = 5.8.0
    use scalapack   = T
    input           = water.nw
    prefix          = water_MO.
    data base       = ./water_MO.db
    status          = startup
    nproc           =       63
    time left       =     -1s



           Memory information
           ------------------

    heap     =    134217728 doubles =     1024.0 Mbytes
    stack    =    134217725 doubles =     1024.0 Mbytes
    global   =    268435456 doubles =     2048.0 Mbytes (distinct from heap & stack)
    total    =    536870909 doubles =     4096.0 Mbytes
    verify   = yes
    hardfail = no 


           Directory information
           ---------------------

  0 permanent = .
  0 scratch   = .




                                NWChem Input Module
                                -------------------


                               water MO calculation
                               --------------------

 Scaling coordinates for geometry "geometry" by  1.889725989
 (inverse scale =  0.529177249)

 C2V symmetry detected

          ------
          auto-z
          ------
     1 autoz failed with cvr_scaling = 1.2 changing to 1.3
     2 autoz failed with cvr_scaling = 1.3 changing to 1.4
     3 autoz failed with cvr_scaling = 1.4 changing to 1.5
     4 autoz failed with cvr_scaling = 1.5 changing to 1.6
     5 autoz failed with cvr_scaling = 1.6 changing to 1.7

 AUTOZ failed to generate good internal coordinates.
 Cartesian coordinates will be used in optimizations.



                             Geometry "geometry" -> ""
                             -------------------------

 Output coordinates in angstroms (scale by  1.889725989 to convert to a.u.)

  No.       Tag          Charge          X              Y              Z
 ---- ---------------- ---------- -------------- -------------- --------------
    1 O                    8.0000     0.00000000     0.00000000     0.22143053
    2 H                    1.0000    -1.43042809     0.00000000    -0.88572213
    3 H                    1.0000     1.43042809     0.00000000    -0.88572213

      Atomic Mass 
      ----------- 

      O                 15.994910
      H                  1.007825


 Effective nuclear repulsion energy (a.u.)       4.8657747133

            Nuclear Dipole moment (a.u.) 
            ----------------------------
        X                 Y               Z
 ---------------- ---------------- ----------------
     0.0000000000     0.0000000000    -0.0000000000

      Symmetry information
      --------------------

 Group name             C2v       
 Group number             16
 Group order               4
 No. of unique centers     2

      Symmetry unique atoms

     1    2


            XYZ format geometry
            -------------------
     3
 geometry
 O                     0.00000000     0.00000000     0.22143053
 H                    -1.43042809     0.00000000    -0.88572213
 H                     1.43042809     0.00000000    -0.88572213



 Summary of "ao basis" -> "" (spherical)
 ------------------------------------------------------------------------------
       Tag                 Description            Shells   Functions and Types
 ---------------- ------------------------------  ------  ---------------------
 *                           6-31G*                   on all atoms 




                           NWChem Geometry Optimization
                           ----------------------------




                               water MO calculation


 maximum gradient threshold         (gmax) =   0.000450
 rms gradient threshold             (grms) =   0.000300
 maximum cartesian step threshold   (xmax) =   0.001800
 rms cartesian step threshold       (xrms) =   0.001200
 fixed trust radius                (trust) =   0.300000
 maximum step size to saddle      (sadstp) =   0.100000
 energy precision                  (eprec) =   5.0D-06
 maximum number of steps          (nptopt) =  256
 initial hessian option           (inhess) =    1
 line search option               (linopt) =    1
 hessian update option            (modupd) =    1
 saddle point option              (modsad) =    0
 initial eigen-mode to follow     (moddir) =    0
 initial variable to follow       (vardir) =    0
 follow first negative mode     (firstneg) =    T
 apply conjugacy                    (opcg) =    F
 source of zmatrix                         =           


          -------------------
          Energy Minimization
          -------------------


 Using diagonal initial Hessian 

          --------
          Step   0
          --------


                         Geometry "geometry" -> "geometry"
                         ---------------------------------

 Output coordinates in angstroms (scale by  1.889725989 to convert to a.u.)

  No.       Tag          Charge          X              Y              Z
 ---- ---------------- ---------- -------------- -------------- --------------
    1 O                    8.0000     0.00000000     0.00000000     0.22143053
    2 H                    1.0000    -1.43042809     0.00000000    -0.88572213
    3 H                    1.0000     1.43042809     0.00000000    -0.88572213

      Atomic Mass 
      ----------- 

      O                 15.994910
      H                  1.007825


 Effective nuclear repulsion energy (a.u.)       4.8657747133

            Nuclear Dipole moment (a.u.) 
            ----------------------------
        X                 Y               Z
 ---------------- ---------------- ----------------
     0.0000000000     0.0000000000    -0.0000000000

      Symmetry information
      --------------------

 Group name             C2v       
 Group number             16
 Group order               4
 No. of unique centers     2

      Symmetry unique atoms

     1    2


                                 NWChem DFT Module
                                 -----------------


                               water MO calculation


                      Basis "ao basis" -> "ao basis" (spherical)
                      -----
  O (Oxygen)
  ----------
            Exponent  Coefficients 
       -------------- ---------------------------------------------------------
  1 S  5.48467170E+03  0.001831
  1 S  8.25234950E+02  0.013950
  1 S  1.88046960E+02  0.068445
  1 S  5.29645000E+01  0.232714
  1 S  1.68975700E+01  0.470193
  1 S  5.79963530E+00  0.358521

  2 S  1.55396160E+01 -0.110778
  2 S  3.59993360E+00 -0.148026
  2 S  1.01376180E+00  1.130767

  3 P  1.55396160E+01  0.070874
  3 P  3.59993360E+00  0.339753
  3 P  1.01376180E+00  0.727159

  4 S  2.70005800E-01  1.000000

  5 P  2.70005800E-01  1.000000

  6 D  8.00000000E-01  1.000000

  H (Hydrogen)
  ------------
            Exponent  Coefficients 
       -------------- ---------------------------------------------------------
  1 S  1.87311370E+01  0.033495
  1 S  2.82539370E+00  0.234727
  1 S  6.40121700E-01  0.813757

  2 S  1.61277800E-01  1.000000



 Summary of "ao basis" -> "ao basis" (spherical)
 ------------------------------------------------------------------------------
       Tag                 Description            Shells   Functions and Types
 ---------------- ------------------------------  ------  ---------------------
 O                           6-31G*                  6       14   3s2p1d
 H                           6-31G*                  2        2   2s




 Summary of "ao basis" -> "ao basis" (spherical)
 ------------------------------------------------------------------------------
       Tag                 Description            Shells   Functions and Types
 ---------------- ------------------------------  ------  ---------------------
 O                           6-31G*                  6       14   3s2p1d
 H                           6-31G*                  2        2   2s


      Symmetry analysis of basis
      --------------------------

        a1          9
        a2          1
        b1          5
        b2          3

  Caching 1-el integrals 

            General Information
            -------------------
          SCF calculation type: DFT
          Wavefunction type:  closed shell.
          No. of atoms     :     3
          No. of electrons :    10
           Alpha electrons :     5
            Beta electrons :     5
          Charge           :     0
          Spin multiplicity:     1
          Use of symmetry is: on ; symmetry adaption is: on 
          Maximum number of iterations:  50
          AO basis - number of functions:    18
                     number of shells:    10
          Convergence on energy requested:  1.00D-06
          Convergence on density requested:  1.00D-05
          Convergence on gradient requested:  5.00D-04

              XC Information
              --------------
                         B3LYP Method XC Potential
                     Hartree-Fock (Exact) Exchange  0.200          
                        Slater Exchange Functional  0.800 local    
                    Becke 1988 Exchange Functional  0.720 non-local
              Lee-Yang-Parr Correlation Functional  0.810          
                  VWN I RPA Correlation Functional  0.190 local    

             Grid Information
             ----------------
          Grid used for XC integration:  medium    
          Radial quadrature: Mura-Knowles        
          Angular quadrature: Lebedev. 
          Tag              B.-S. Rad. Rad. Pts. Rad. Cut. Ang. Pts.
          ---              ---------- --------- --------- ---------
          O                   0.60       49           6.0       434
          H                   0.35       45           8.0       434
          Grid pruning is: on 
          Number of quadrature shells:    94
          Spatial weights used:  Erf1

          Convergence Information
          -----------------------
          Convergence aids based upon iterative change in 
          total energy or number of iterations. 
          Levelshifting, if invoked, occurs when the 
          HOMO/LUMO gap drops below (HL_TOL):  1.00D-02
          DIIS, if invoked, will attempt to extrapolate 
          using up to (NFOCK): 10 stored Fock matrices.

                    Damping( 0%)  Levelshifting(0.5)       DIIS
                  --------------- ------------------- ---------------
          dE  on:    start            ASAP                start   
          dE off:    2 iters         50 iters            50 iters 


      Screening Tolerance Information
      -------------------------------
          Density screening/tol_rho:  1.00D-10
          AO Gaussian exp screening on grid/accAOfunc:  14
          CD Gaussian exp screening on grid/accCDfunc:  20
          XC Gaussian exp screening on grid/accXCfunc:  20
          Schwarz screening/accCoul:  1.00D-08


      Superposition of Atomic Density Guess
      -------------------------------------

 Sum of atomic energies:         -75.75081731

      Non-variational initial energy
      ------------------------------

 Total energy =     -75.035019
 1-e energy   =    -113.905371
 2-e energy   =      34.004578
 HOMO         =      -0.374377
 LUMO         =      -0.130183


      Symmetry analysis of molecular orbitals - initial
      -------------------------------------------------

  Numbering of irreducible representations: 

     1 a1          2 a2          3 b1          4 b2      

  Orbital symmetries:

     1 a1          2 a1          3 b1          4 a1          5 b2      
     6 a1          7 b1          8 a1          9 b1         10 b2      
    11 a1         12 b1         13 a1         14 a1         15 a2      

   Time after variat. SCF:      1.9
   Time prior to 1st pass:      1.9

 Grid_pts file          = ./water_MO.gridpts.00
 Record size in doubles =  12289        No. of grid_pts per rec  =   3070
 Max. records in memory =      2        Max. recs in file   =  16083341


           Memory utilization after 1st SCF pass: 
           Heap Space remaining (MW):       80.56            80562560
          Stack Space remaining (MW):      134.22           134217492

   convergence    iter        energy       DeltaE   RMS-Dens  Diis-err    time
 ---------------- ----- ----------------- --------- --------- ---------  ------
 d= 0,ls=0.0,diis     1    -75.8736059946 -8.07D+01  1.26D-01  1.16D+00     2.1
 d= 0,ls=0.0,diis     2    -74.4980457446  1.38D+00  9.87D-02  7.40D+00     2.2
 d= 0,ls=0.0,diis     3    -76.1132778890 -1.62D+00  1.30D-03  8.15D-04     2.3
 d= 0,ls=0.0,diis     4    -76.1133826201 -1.05D-04  1.61D-04  1.13D-04     2.4
 d= 0,ls=0.0,diis     5    -76.1133956257 -1.30D-05  3.08D-05  4.70D-05     2.4
  Resetting Diis
 d= 0,ls=0.0,diis     6    -76.1133941559  1.47D-06  1.29D-06  5.63D-05     2.5
 d= 0,ls=0.0,diis     7    -76.1133942351 -7.92D-08  1.10D-03  5.56D-05     2.6
 d= 0,ls=0.0,diis     8    -76.1132315200  1.63D-04  8.90D-04  1.37D-03     2.8
 d= 0,ls=0.0,diis     9    -76.1134013864 -1.70D-04  1.59D-05  3.54D-07     2.9
 d= 0,ls=0.0,diis    10    -76.1134014354 -4.89D-08  2.71D-07  8.28D-11     3.0


         Total DFT energy =      -76.113401435371
      One electron energy =     -114.614976864767
           Coulomb energy =       42.570830878466
    Exchange-Corr. energy =       -8.935030162358
 Nuclear repulsion energy =        4.865774713288

 Numeric. integr. density =       10.000003688378

     Total iterative time =      1.2s



                  Occupations of the irreducible representations
                  ----------------------------------------------

                     irrep           alpha         beta
                     --------     --------     --------
                     a1                3.0          3.0
                     a2                0.0          0.0
                     b1                1.0          1.0
                     b2                1.0          1.0


                       DFT Final Molecular Orbital Analysis
                       ------------------------------------

 Vector    1  Occ=2.000000D+00  E=-1.921944D+01  Symmetry=a1
              MO Center=  7.7D-20, -1.0D-22,  2.2D-01, r^2= 1.5D-02
   Bfn.  Coefficient  Atom+Function         Bfn.  Coefficient  Atom+Function  
  ----- ------------  ---------------      ----- ------------  ---------------
     1      0.995114  1 O  s                  2      0.025741  1 O  s          

 Vector    2  Occ=2.000000D+00  E=-8.789494D-01  Symmetry=a1
              MO Center=  3.5D-16,  8.3D-17,  1.8D-01, r^2= 4.9D-01
   Bfn.  Coefficient  Atom+Function         Bfn.  Coefficient  Atom+Function  
  ----- ------------  ---------------      ----- ------------  ---------------
     6      0.541497  1 O  s                  2      0.534043  1 O  s          
     1     -0.232232  1 O  s                 15      0.025480  2 H  s          
    17      0.025480  3 H  s          

 Vector    3  Occ=2.000000D+00  E=-3.500883D-01  Symmetry=b1
              MO Center= -2.8D-16,  1.1D-31, -2.4D-01, r^2= 1.8D+00
   Bfn.  Coefficient  Atom+Function         Bfn.  Coefficient  Atom+Function  
  ----- ------------  ---------------      ----- ------------  ---------------
     3      0.476955  1 O  px                 7      0.318241  1 O  px         
    16     -0.272736  2 H  s                 18      0.272736  3 H  s          
    15     -0.183956  2 H  s                 17      0.183956  3 H  s          

 Vector    4  Occ=2.000000D+00  E=-3.293183D-01  Symmetry=a1
              MO Center= -2.5D-16, -9.9D-17, -2.0D-01, r^2= 1.7D+00
   Bfn.  Coefficient  Atom+Function         Bfn.  Coefficient  Atom+Function  
  ----- ------------  ---------------      ----- ------------  ---------------
     5      0.489035  1 O  pz                 9      0.332894  1 O  pz         
    16     -0.274171  2 H  s                 18     -0.274171  3 H  s          
    15     -0.176570  2 H  s                 17     -0.176570  3 H  s          
     6      0.133486  1 O  s                  2      0.090629  1 O  s          
     1     -0.035502  1 O  s          

 Vector    5  Occ=2.000000D+00  E=-2.863715D-01  Symmetry=b2
              MO Center= -8.6D-17, -1.1D-16,  2.2D-01, r^2= 5.6D-01
   Bfn.  Coefficient  Atom+Function         Bfn.  Coefficient  Atom+Function  
  ----- ------------  ---------------      ----- ------------  ---------------
     4      0.675662  1 O  py                 8      0.472470  1 O  py         

 Vector    6  Occ=0.000000D+00  E=-1.501767D-01  Symmetry=a1
              MO Center= -4.9D-15, -6.6D-17, -4.6D-01, r^2= 2.4D+00
   Bfn.  Coefficient  Atom+Function         Bfn.  Coefficient  Atom+Function  
  ----- ------------  ---------------      ----- ------------  ---------------
     5      0.461728  1 O  pz                16      0.442118  2 H  s          
    18      0.442118  3 H  s                  9      0.377710  1 O  pz         
    15      0.215610  2 H  s                 17      0.215610  3 H  s          
     6     -0.169968  1 O  s                  2     -0.088561  1 O  s          
     1      0.035294  1 O  s          

 Vector    7  Occ=0.000000D+00  E=-1.220529D-01  Symmetry=b1
              MO Center=  4.7D-15, -5.2D-17, -4.6D-01, r^2= 2.5D+00
   Bfn.  Coefficient  Atom+Function         Bfn.  Coefficient  Atom+Function  
  ----- ------------  ---------------      ----- ------------  ---------------
     3      0.485370  1 O  px                16      0.460479  2 H  s          
    18     -0.460479  3 H  s                  7      0.406642  1 O  px         
    15      0.228292  2 H  s                 17     -0.228292  3 H  s          

 Vector    8  Occ=0.000000D+00  E= 7.098846D-01  Symmetry=a1
              MO Center= -6.2D-15,  5.6D-17, -8.3D-01, r^2= 3.5D+00
   Bfn.  Coefficient  Atom+Function         Bfn.  Coefficient  Atom+Function  
  ----- ------------  ---------------      ----- ------------  ---------------
    15      0.861749  2 H  s                 17      0.861749  3 H  s          
    16     -0.842992  2 H  s                 18     -0.842992  3 H  s          
     9     -0.368353  1 O  pz                 5      0.214010  1 O  pz         
     6      0.168668  1 O  s                  2      0.131336  1 O  s          
    14      0.037210  1 O  d  2               1     -0.030385  1 O  s          

 Vector    9  Occ=0.000000D+00  E= 7.842289D-01  Symmetry=b1
              MO Center=  5.8D-15,  1.2D-19, -9.8D-01, r^2= 3.8D+00
   Bfn.  Coefficient  Atom+Function         Bfn.  Coefficient  Atom+Function  
  ----- ------------  ---------------      ----- ------------  ---------------
    16     -0.981174  2 H  s                 18      0.981174  3 H  s          
    15      0.896170  2 H  s                 17     -0.896170  3 H  s          
     7     -0.430221  1 O  px                 3      0.177072  1 O  px         
    13     -0.052352  1 O  d  1       

 Vector   10  Occ=0.000000D+00  E= 8.943870D-01  Symmetry=b2
              MO Center=  3.9D-17,  9.1D-17,  2.2D-01, r^2= 1.2D+00
   Bfn.  Coefficient  Atom+Function         Bfn.  Coefficient  Atom+Function  
  ----- ------------  ---------------      ----- ------------  ---------------
     8      1.054885  1 O  py                 4     -0.937828  1 O  py         

 Vector   11  Occ=0.000000D+00  E= 9.307998D-01  Symmetry=a1
              MO Center= -5.8D-17, -2.6D-16,  3.8D-01, r^2= 1.3D+00
   Bfn.  Coefficient  Atom+Function         Bfn.  Coefficient  Atom+Function  
  ----- ------------  ---------------      ----- ------------  ---------------
     9      1.005262  1 O  pz                 5     -0.892931  1 O  pz         
     6      0.340069  1 O  s                  2     -0.326511  1 O  s          
    15      0.257302  2 H  s                 17      0.257302  3 H  s          
    16     -0.102136  2 H  s                 18     -0.102136  3 H  s          
     1      0.025232  1 O  s          

 Vector   12  Occ=0.000000D+00  E= 9.750968D-01  Symmetry=b1
              MO Center=  7.4D-17,  8.6D-18,  2.4D-01, r^2= 1.3D+00
   Bfn.  Coefficient  Atom+Function         Bfn.  Coefficient  Atom+Function  
  ----- ------------  ---------------      ----- ------------  ---------------
     7      1.129714  1 O  px                 3     -0.936386  1 O  px         
    15      0.206460  2 H  s                 17     -0.206460  3 H  s          
    16      0.077748  2 H  s                 18     -0.077748  3 H  s          
    13     -0.047537  1 O  d  1       

 Vector   13  Occ=0.000000D+00  E= 1.121621D+00  Symmetry=a1
              MO Center=  6.0D-17,  1.4D-16, -1.1D-01, r^2= 1.3D+00
   Bfn.  Coefficient  Atom+Function         Bfn.  Coefficient  Atom+Function  
  ----- ------------  ---------------      ----- ------------  ---------------
     6     -1.621204  1 O  s                  2      1.487174  1 O  s          
     9      0.390598  1 O  pz                16      0.350144  2 H  s          
    18      0.350144  3 H  s                  5     -0.247359  1 O  pz         
     1     -0.099648  1 O  s                 15     -0.060169  2 H  s          
    17     -0.060169  3 H  s          

 Vector   14  Occ=0.000000D+00  E= 1.796235D+00  Symmetry=a1
              MO Center=  3.8D-19, -1.4D-17,  2.3D-01, r^2= 6.2D-01
   Bfn.  Coefficient  Atom+Function         Bfn.  Coefficient  Atom+Function  
  ----- ------------  ---------------      ----- ------------  ---------------
    12      0.887199  1 O  d  0              14     -0.461574  1 O  d  2       
     6     -0.034039  1 O  s                  9      0.027485  1 O  pz         
     2      0.026281  1 O  s          

 Vector   15  Occ=0.000000D+00  E= 1.816058D+00  Symmetry=a2
              MO Center=  4.1D-17, -4.6D-16,  2.2D-01, r^2= 6.1D-01
   Bfn.  Coefficient  Atom+Function         Bfn.  Coefficient  Atom+Function  
  ----- ------------  ---------------      ----- ------------  ---------------
    10      1.000000  1 O  d -2       

 Vector   16  Occ=0.000000D+00  E= 1.816399D+00  Symmetry=b1
              MO Center=  2.5D-16,  5.0D-16,  1.9D-01, r^2= 6.6D-01
   Bfn.  Coefficient  Atom+Function         Bfn.  Coefficient  Atom+Function  
  ----- ------------  ---------------      ----- ------------  ---------------
    13      1.004273  1 O  d  1               7      0.101800  1 O  px         
    16      0.065008  2 H  s                 18     -0.065008  3 H  s          
     3     -0.063012  1 O  px                15      0.050496  2 H  s          
    17     -0.050496  3 H  s          

 Vector   17  Occ=0.000000D+00  E= 1.819395D+00  Symmetry=b2
              MO Center=  6.1D-18,  1.3D-16,  2.3D-01, r^2= 6.1D-01
   Bfn.  Coefficient  Atom+Function         Bfn.  Coefficient  Atom+Function  
  ----- ------------  ---------------      ----- ------------  ---------------
    11      0.999971  1 O  d -1       

 Vector   18  Occ=0.000000D+00  E= 1.834456D+00  Symmetry=a1
              MO Center=  8.7D-17,  4.5D-17,  2.1D-01, r^2= 6.3D-01
   Bfn.  Coefficient  Atom+Function         Bfn.  Coefficient  Atom+Function  
  ----- ------------  ---------------      ----- ------------  ---------------
    14      0.888672  1 O  d  2              12      0.461353  1 O  d  0       
     6      0.067715  1 O  s                  2     -0.056689  1 O  s          
     9     -0.044616  1 O  pz                16     -0.034629  2 H  s          
    18     -0.034629  3 H  s                 15     -0.034127  2 H  s          
    17     -0.034127  3 H  s                  5      0.028201  1 O  pz         


 center of mass
 --------------
 x =   0.00000000 y =   0.00000000 z =   0.18429298

 moments of inertia (a.u.)
 ------------------
           7.835782890216           0.000000000000           0.000000000000
           0.000000000000          22.563819478415           0.000000000000
           0.000000000000           0.000000000000          14.728036588199

     Multipole analysis of the density
     ---------------------------------

     L   x y z        total         alpha         beta         nuclear
     -   - - -        -----         -----         ----         -------
     0   0 0 0     -0.000000     -5.000000     -5.000000     10.000000

     1   1 0 0      0.000000      0.000000      0.000000      0.000000
     1   0 1 0     -0.000000     -0.000000     -0.000000      0.000000
     1   0 0 1     -0.694682     -0.347341     -0.347341     -0.000000

     2   2 0 0     -2.305990     -8.459837     -8.459837     14.613685
     2   1 1 0     -0.000000     -0.000000     -0.000000      0.000000
     2   1 0 1      0.000000      0.000000      0.000000      0.000000
     2   0 2 0     -6.113131     -3.056566     -3.056566      0.000000
     2   0 1 1     -0.000000     -0.000000     -0.000000      0.000000
     2   0 0 2     -4.279190     -5.641486     -5.641486      7.003783


            General Information
            -------------------
          SCF calculation type: DFT
          Wavefunction type:  closed shell.
          No. of atoms     :     3
          No. of electrons :    10
           Alpha electrons :     5
            Beta electrons :     5
          Charge           :     0
          Spin multiplicity:     1
          Use of symmetry is: on ; symmetry adaption is: on 
          Maximum number of iterations:  50
          AO basis - number of functions:    18
                     number of shells:    10
          Convergence on energy requested:  1.00D-06
          Convergence on density requested:  1.00D-05
          Convergence on gradient requested:  5.00D-04

              XC Information
              --------------
                         B3LYP Method XC Potential
                     Hartree-Fock (Exact) Exchange  0.200          
                        Slater Exchange Functional  0.800 local    
                    Becke 1988 Exchange Functional  0.720 non-local
              Lee-Yang-Parr Correlation Functional  0.810          
                  VWN I RPA Correlation Functional  0.190 local    

             Grid Information
             ----------------
          Grid used for XC integration:  medium    
          Radial quadrature: Mura-Knowles        
          Angular quadrature: Lebedev. 
          Tag              B.-S. Rad. Rad. Pts. Rad. Cut. Ang. Pts.
          ---              ---------- --------- --------- ---------
          O                   0.60       49           6.0       434
          H                   0.35       45           8.0       434
          Grid pruning is: on 
          Number of quadrature shells:    94
          Spatial weights used:  Erf1

          Convergence Information
          -----------------------
          Convergence aids based upon iterative change in 
          total energy or number of iterations. 
          Levelshifting, if invoked, occurs when the 
          HOMO/LUMO gap drops below (HL_TOL):  1.00D-02
          DIIS, if invoked, will attempt to extrapolate 
          using up to (NFOCK): 10 stored Fock matrices.

                    Damping( 0%)  Levelshifting(0.5)       DIIS
                  --------------- ------------------- ---------------
          dE  on:    start            ASAP                start   
          dE off:    2 iters         50 iters            50 iters 


      Screening Tolerance Information
      -------------------------------
          Density screening/tol_rho:  1.00D-10
          AO Gaussian exp screening on grid/accAOfunc:  14
          CD Gaussian exp screening on grid/accCDfunc:  20
          XC Gaussian exp screening on grid/accXCfunc:  20
          Schwarz screening/accCoul:  1.00D-08



                            NWChem DFT Gradient Module
                            --------------------------


                               water MO calculation



  charge          =   0.00
  wavefunction    = closed shell

  Using symmetry


                         DFT ENERGY GRADIENTS

    atom               coordinates                        gradient
                 x          y          z           x          y          z
   1 O       0.000000   0.000000   0.418443    0.000000   0.000000   0.094038
   2 H      -2.703117   0.000000  -1.673772   -0.069498   0.000000  -0.047019
   3 H       2.703117   0.000000  -1.673772    0.069498   0.000000  -0.047019

                 ----------------------------------------
                 |  Time  |  1-e(secs)   |  2-e(secs)   |
                 ----------------------------------------
                 |  CPU   |       0.02   |       0.00   |
                 ----------------------------------------
                 |  WALL  |       0.02   |       0.00   |
                 ----------------------------------------

@ Step       Energy      Delta E   Gmax     Grms     Xrms     Xmax   Walltime
@ ---- ---------------- -------- -------- -------- -------- -------- --------
@    0     -76.11340144  0.0D+00  0.09404  0.05047  0.00000  0.00000      3.3
                                                                    

 Restricting large step in mode    2 eval= 2.7D-01 step=-5.5D-01 new=-3.0D-01

                                 NWChem DFT Module
                                 -----------------


                               water MO calculation




 Summary of "ao basis" -> "ao basis" (spherical)
 ------------------------------------------------------------------------------
       Tag                 Description            Shells   Functions and Types
 ---------------- ------------------------------  ------  ---------------------
 O                           6-31G*                  6       14   3s2p1d
 H                           6-31G*                  2        2   2s


      Symmetry analysis of basis
      --------------------------

        a1          9
        a2          1
        b1          5
        b2          3

  Caching 1-el integrals 

            General Information
            -------------------
          SCF calculation type: DFT
          Wavefunction type:  closed shell.
          No. of atoms     :     3
          No. of electrons :    10
           Alpha electrons :     5
            Beta electrons :     5
          Charge           :     0
          Spin multiplicity:     1
          Use of symmetry is: on ; symmetry adaption is: on 
          Maximum number of iterations:  50
          AO basis - number of functions:    18
                     number of shells:    10
          Convergence on energy requested:  1.00D-06
          Convergence on density requested:  1.00D-05
          Convergence on gradient requested:  5.00D-04

              XC Information
              --------------
                         B3LYP Method XC Potential
                     Hartree-Fock (Exact) Exchange  0.200          
                        Slater Exchange Functional  0.800 local    
                    Becke 1988 Exchange Functional  0.720 non-local
              Lee-Yang-Parr Correlation Functional  0.810          
                  VWN I RPA Correlation Functional  0.190 local    

             Grid Information
             ----------------
          Grid used for XC integration:  medium    
          Radial quadrature: Mura-Knowles        
          Angular quadrature: Lebedev. 
          Tag              B.-S. Rad. Rad. Pts. Rad. Cut. Ang. Pts.
          ---              ---------- --------- --------- ---------
          O                   0.60       49           6.0       434
          H                   0.35       45           8.0       434
          Grid pruning is: on 
          Number of quadrature shells:    94
          Spatial weights used:  Erf1

          Convergence Information
          -----------------------
          Convergence aids based upon iterative change in 
          total energy or number of iterations. 
          Levelshifting, if invoked, occurs when the 
          HOMO/LUMO gap drops below (HL_TOL):  1.00D-02
          DIIS, if invoked, will attempt to extrapolate 
          using up to (NFOCK): 10 stored Fock matrices.

                    Damping( 0%)  Levelshifting(0.5)       DIIS
                  --------------- ------------------- ---------------
          dE  on:    start            ASAP                start   
          dE off:    2 iters         50 iters            50 iters 


      Screening Tolerance Information
      -------------------------------
          Density screening/tol_rho:  1.00D-10
          AO Gaussian exp screening on grid/accAOfunc:  14
          CD Gaussian exp screening on grid/accCDfunc:  20
          XC Gaussian exp screening on grid/accXCfunc:  20
          Schwarz screening/accCoul:  1.00D-08


 Loading old vectors from job with title :

water MO calculation


      Symmetry analysis of molecular orbitals - initial
      -------------------------------------------------

  Numbering of irreducible representations: 

     1 a1          2 a2          3 b1          4 b2      

  Orbital symmetries:

     1 a1          2 a1          3 b1          4 a1          5 b2      
     6 a1          7 b1          8 a1          9 b1         10 b2      
    11 a1         12 b1         13 a1         14 a1         15 a2      

   Time after variat. SCF:      3.5
   Time prior to 1st pass:      3.5

 Grid_pts file          = ./water_MO.gridpts.00
 Record size in doubles =  12289        No. of grid_pts per rec  =   3070
 Max. records in memory =      2        Max. recs in file   =  16083341


           Memory utilization after 1st SCF pass: 
           Heap Space remaining (MW):       80.56            80562560
          Stack Space remaining (MW):      134.22           134217492

   convergence    iter        energy       DeltaE   RMS-Dens  Diis-err    time
 ---------------- ----- ----------------- --------- --------- ---------  ------
 d= 0,ls=0.0,diis     1    -76.1598433623 -8.15D+01  8.45D-03  6.40D-03     3.6
 d= 0,ls=0.0,diis     2    -76.1555116072  4.33D-03  5.55D-03  4.77D-02     3.7
 d= 0,ls=0.0,diis     3    -76.1611791833 -5.67D-03  4.63D-04  7.26D-05     3.8
 d= 0,ls=0.0,diis     4    -76.1611930536 -1.39D-05  7.64D-05  5.22D-06     3.8
 d= 0,ls=0.0,diis     5    -76.1611937692 -7.16D-07  4.17D-05  1.90D-07     3.9
 d= 0,ls=0.0,diis     6    -76.1611938224 -5.33D-08  1.02D-05  9.33D-08     4.0
 d= 0,ls=0.0,diis     7    -76.1611938353 -1.28D-08  1.40D-06  2.18D-09     4.1


         Total DFT energy =      -76.161193835267
      One electron energy =     -115.520008638448
           Coulomb energy =       43.039121240631
    Exchange-Corr. energy =       -8.971113430787
 Nuclear repulsion energy =        5.290806993336

 Numeric. integr. density =       10.000003456819

     Total iterative time =      0.6s



                  Occupations of the irreducible representations
                  ----------------------------------------------

                     irrep           alpha         beta
                     --------     --------     --------
                     a1                3.0          3.0
                     a2                0.0          0.0
                     b1                1.0          1.0
                     b2                1.0          1.0


                       DFT Final Molecular Orbital Analysis
                       ------------------------------------

 Vector    1  Occ=2.000000D+00  E=-1.921135D+01  Symmetry=a1
              MO Center=  4.5D-19, -1.3D-22,  1.3D-01, r^2= 1.5D-02
   Bfn.  Coefficient  Atom+Function         Bfn.  Coefficient  Atom+Function  
  ----- ------------  ---------------      ----- ------------  ---------------
     1      0.995115  1 O  s                  2      0.025896  1 O  s          

 Vector    2  Occ=2.000000D+00  E=-8.806153D-01  Symmetry=a1
              MO Center= -2.1D-16, -1.2D-17,  7.6D-02, r^2= 5.0D-01
   Bfn.  Coefficient  Atom+Function         Bfn.  Coefficient  Atom+Function  
  ----- ------------  ---------------      ----- ------------  ---------------
     6      0.540826  1 O  s                  2      0.526611  1 O  s          
     1     -0.230635  1 O  s                 15      0.035201  2 H  s          
    17      0.035201  3 H  s                  5     -0.030459  1 O  pz         

 Vector    3  Occ=2.000000D+00  E=-3.679902D-01  Symmetry=b1
              MO Center=  2.2D-16,  6.4D-32, -2.7D-01, r^2= 1.6D+00
   Bfn.  Coefficient  Atom+Function         Bfn.  Coefficient  Atom+Function  
  ----- ------------  ---------------      ----- ------------  ---------------
     3      0.472868  1 O  px                 7      0.311024  1 O  px         
    16     -0.258924  2 H  s                 18      0.258924  3 H  s          
    15     -0.189638  2 H  s                 17      0.189638  3 H  s          

 Vector    4  Occ=2.000000D+00  E=-3.324752D-01  Symmetry=a1
              MO Center=  8.5D-17, -1.1D-15, -2.0D-01, r^2= 1.5D+00
   Bfn.  Coefficient  Atom+Function         Bfn.  Coefficient  Atom+Function  
  ----- ------------  ---------------      ----- ------------  ---------------
     5      0.498575  1 O  pz                 9      0.340289  1 O  pz         
    16     -0.256265  2 H  s                 18     -0.256265  3 H  s          
    15     -0.174164  2 H  s                 17     -0.174164  3 H  s          
     6      0.168473  1 O  s                  2      0.106854  1 O  s          
     1     -0.042946  1 O  s          

 Vector    5  Occ=2.000000D+00  E=-2.833587D-01  Symmetry=b2
              MO Center= -1.1D-16,  8.2D-16,  1.2D-01, r^2= 5.6D-01
   Bfn.  Coefficient  Atom+Function         Bfn.  Coefficient  Atom+Function  
  ----- ------------  ---------------      ----- ------------  ---------------
     4      0.671821  1 O  py                 8      0.476754  1 O  py         

 Vector    6  Occ=0.000000D+00  E=-1.284552D-01  Symmetry=a1
              MO Center=  1.3D-16, -1.5D-16, -5.0D-01, r^2= 2.4D+00
   Bfn.  Coefficient  Atom+Function         Bfn.  Coefficient  Atom+Function  
  ----- ------------  ---------------      ----- ------------  ---------------
    16      0.478989  2 H  s                 18      0.478989  3 H  s          
     5      0.447250  1 O  pz                 9      0.386975  1 O  pz         
     6     -0.240444  1 O  s                 15      0.214336  2 H  s          
    17      0.214336  3 H  s                  2     -0.104416  1 O  s          
     1      0.043946  1 O  s          

 Vector    7  Occ=0.000000D+00  E=-8.814145D-02  Symmetry=b1
              MO Center= -4.7D-16, -5.0D-17, -4.9D-01, r^2= 2.3D+00
   Bfn.  Coefficient  Atom+Function         Bfn.  Coefficient  Atom+Function  
  ----- ------------  ---------------      ----- ------------  ---------------
    16      0.506991  2 H  s                 18     -0.506991  3 H  s          
     3      0.491963  1 O  px                 7      0.445908  1 O  px         
    15      0.222009  2 H  s                 17     -0.222009  3 H  s          

 Vector    8  Occ=0.000000D+00  E= 6.926595D-01  Symmetry=a1
              MO Center=  8.4D-15,  1.4D-15, -8.0D-01, r^2= 3.3D+00
   Bfn.  Coefficient  Atom+Function         Bfn.  Coefficient  Atom+Function  
  ----- ------------  ---------------      ----- ------------  ---------------
    16     -0.869024  2 H  s                 18     -0.869024  3 H  s          
    15      0.840687  2 H  s                 17      0.840687  3 H  s          
     9     -0.412677  1 O  pz                 6      0.337939  1 O  s          
     5      0.275657  1 O  pz                14      0.064750  1 O  d  2       

 Vector    9  Occ=0.000000D+00  E= 7.548056D-01  Symmetry=b1
              MO Center= -7.6D-15,  3.3D-19, -9.2D-01, r^2= 3.6D+00
   Bfn.  Coefficient  Atom+Function         Bfn.  Coefficient  Atom+Function  
  ----- ------------  ---------------      ----- ------------  ---------------
    16      1.012158  2 H  s                 18     -1.012158  3 H  s          
    15     -0.853923  2 H  s                 17      0.853923  3 H  s          
     7      0.537104  1 O  px                 3     -0.275299  1 O  px         
    13      0.090426  1 O  d  1       

 Vector   10  Occ=0.000000D+00  E= 8.944261D-01  Symmetry=b2
              MO Center=  1.6D-17,  1.5D-15,  1.3D-01, r^2= 1.2D+00
   Bfn.  Coefficient  Atom+Function         Bfn.  Coefficient  Atom+Function  
  ----- ------------  ---------------      ----- ------------  ---------------
     8      1.052936  1 O  py                 4     -0.940582  1 O  py         

 Vector   11  Occ=0.000000D+00  E= 9.407728D-01  Symmetry=a1
              MO Center= -6.0D-16, -2.8D-15,  3.1D-01, r^2= 1.3D+00
   Bfn.  Coefficient  Atom+Function         Bfn.  Coefficient  Atom+Function  
  ----- ------------  ---------------      ----- ------------  ---------------
     9      0.977294  1 O  pz                 5     -0.868174  1 O  pz         
     6      0.444686  1 O  s                  2     -0.413039  1 O  s          
    15      0.298364  2 H  s                 17      0.298364  3 H  s          
    16     -0.155861  2 H  s                 18     -0.155861  3 H  s          
    14      0.042321  1 O  d  2               1      0.032147  1 O  s          

 Vector   12  Occ=0.000000D+00  E= 1.015399D+00  Symmetry=b1
              MO Center=  5.0D-17,  5.0D-18,  1.7D-01, r^2= 1.3D+00
   Bfn.  Coefficient  Atom+Function         Bfn.  Coefficient  Atom+Function  
  ----- ------------  ---------------      ----- ------------  ---------------
     7      1.136982  1 O  px                 3     -0.915707  1 O  px         
    15      0.315030  2 H  s                 17     -0.315030  3 H  s          
    13     -0.089611  1 O  d  1       

 Vector   13  Occ=0.000000D+00  E= 1.153175D+00  Symmetry=a1
              MO Center= -4.4D-16, -6.9D-16, -2.1D-01, r^2= 1.2D+00
   Bfn.  Coefficient  Atom+Function         Bfn.  Coefficient  Atom+Function  
  ----- ------------  ---------------      ----- ------------  ---------------
     6      1.646166  1 O  s                  2     -1.488097  1 O  s          
     9     -0.445377  1 O  pz                16     -0.300866  2 H  s          
    18     -0.300866  3 H  s                  5      0.282978  1 O  pz         
     1      0.097594  1 O  s                 15     -0.062251  2 H  s          
    17     -0.062251  3 H  s                 14     -0.044176  1 O  d  2       

 Vector   14  Occ=0.000000D+00  E= 1.797856D+00  Symmetry=a1
              MO Center= -4.1D-17, -2.6D-16,  1.5D-01, r^2= 6.2D-01
   Bfn.  Coefficient  Atom+Function         Bfn.  Coefficient  Atom+Function  
  ----- ------------  ---------------      ----- ------------  ---------------
    12      0.922920  1 O  d  0              14     -0.384313  1 O  d  2       
     6     -0.048894  1 O  s                  9      0.042702  1 O  pz         
     2      0.041075  1 O  s                 15      0.040551  2 H  s          
    17      0.040551  3 H  s          

 Vector   15  Occ=0.000000D+00  E= 1.814214D+00  Symmetry=a2
              MO Center= -1.8D-16,  2.6D-17,  1.3D-01, r^2= 6.1D-01
   Bfn.  Coefficient  Atom+Function         Bfn.  Coefficient  Atom+Function  
  ----- ------------  ---------------      ----- ------------  ---------------
    10      1.000000  1 O  d -2       

 Vector   16  Occ=0.000000D+00  E= 1.821468D+00  Symmetry=b2
              MO Center=  2.7D-16, -3.0D-17,  1.4D-01, r^2= 6.1D-01
   Bfn.  Coefficient  Atom+Function         Bfn.  Coefficient  Atom+Function  
  ----- ------------  ---------------      ----- ------------  ---------------
    11      0.999945  1 O  d -1       

 Vector   17  Occ=0.000000D+00  E= 1.839263D+00  Symmetry=b1
              MO Center= -3.5D-16,  1.9D-17,  7.9D-02, r^2= 6.7D-01
   Bfn.  Coefficient  Atom+Function         Bfn.  Coefficient  Atom+Function  
  ----- ------------  ---------------      ----- ------------  ---------------
    13      1.001271  1 O  d  1              15      0.148993  2 H  s          
    17     -0.148993  3 H  s                  7      0.145751  1 O  px         
     3     -0.096333  1 O  px         

 Vector   18  Occ=0.000000D+00  E= 1.845261D+00  Symmetry=a1
              MO Center=  8.3D-16,  1.4D-15,  1.1D-01, r^2= 6.4D-01
   Bfn.  Coefficient  Atom+Function         Bfn.  Coefficient  Atom+Function  
  ----- ------------  ---------------      ----- ------------  ---------------
    14      0.923523  1 O  d  2              12      0.384731  1 O  d  0       
    15     -0.094895  2 H  s                 17     -0.094895  3 H  s          
     6      0.093382  1 O  s                  2     -0.084414  1 O  s          
     9     -0.067219  1 O  pz                 5      0.043826  1 O  pz         


 center of mass
 --------------
 x =   0.00000000 y =   0.00000000 z =   0.04070569

 moments of inertia (a.u.)
 ------------------
           6.016949485879           0.000000000000           0.000000000000
           0.000000000000          19.121716076935           0.000000000000
           0.000000000000           0.000000000000          13.104766591055

     Multipole analysis of the density
     ---------------------------------

     L   x y z        total         alpha         beta         nuclear
     -   - - -        -----         -----         ----         -------
     0   0 0 0     -0.000000     -5.000000     -5.000000     10.000000

     1   1 0 0     -0.000000     -0.000000     -0.000000      0.000000
     1   0 1 0     -0.000000     -0.000000     -0.000000      0.000000
     1   0 0 1     -0.682113      0.262884      0.262884     -1.207881

     2   2 0 0     -2.275072     -7.639045     -7.639045     13.003018
     2   1 1 0     -0.000000     -0.000000     -0.000000      0.000000
     2   1 0 1      0.000000      0.000000      0.000000      0.000000
     2   0 2 0     -6.046856     -3.023428     -3.023428      0.000000
     2   0 1 1     -0.000000     -0.000000     -0.000000      0.000000
     2   0 0 2     -4.313029     -4.918500     -4.918500      5.523970

 Line search: 
     step= 1.00 grad=-4.6D-02 hess=-2.1D-03 energy=    -76.161194 mode=negative
 new step= 2.00                   predicted energy=    -76.213272

          --------
          Step   1
          --------


                         Geometry "geometry" -> "geometry"
                         ---------------------------------

 Output coordinates in angstroms (scale by  1.889725989 to convert to a.u.)

  No.       Tag          Charge          X              Y              Z
 ---- ---------------- ---------- -------------- -------------- --------------
    1 O                    8.0000     0.00000000     0.00000000     0.03880680
    2 H                    1.0000    -1.26817022     0.00000000    -0.79441026
    3 H                    1.0000     1.26817022     0.00000000    -0.79441026

      Atomic Mass 
      ----------- 

      O                 15.994910
      H                  1.007825


 Effective nuclear repulsion energy (a.u.)       5.7884650055

            Nuclear Dipole moment (a.u.) 
            ----------------------------
        X                 Y               Z
 ---------------- ---------------- ----------------
     0.0000000000     0.0000000000    -2.4157616918

      Symmetry information
      --------------------

 Group name             C2v       
 Group number             16
 Group order               4
 No. of unique centers     2

      Symmetry unique atoms

     1    2


                                 NWChem DFT Module
                                 -----------------


                               water MO calculation




 Summary of "ao basis" -> "ao basis" (spherical)
 ------------------------------------------------------------------------------
       Tag                 Description            Shells   Functions and Types
 ---------------- ------------------------------  ------  ---------------------
 O                           6-31G*                  6       14   3s2p1d
 H                           6-31G*                  2        2   2s


      Symmetry analysis of basis
      --------------------------

        a1          9
        a2          1
        b1          5
        b2          3

  Caching 1-el integrals 

            General Information
            -------------------
          SCF calculation type: DFT
          Wavefunction type:  closed shell.
          No. of atoms     :     3
          No. of electrons :    10
           Alpha electrons :     5
            Beta electrons :     5
          Charge           :     0
          Spin multiplicity:     1
          Use of symmetry is: on ; symmetry adaption is: on 
          Maximum number of iterations:  50
          AO basis - number of functions:    18
                     number of shells:    10
          Convergence on energy requested:  1.00D-06
          Convergence on density requested:  1.00D-05
          Convergence on gradient requested:  5.00D-04

              XC Information
              --------------
                         B3LYP Method XC Potential
                     Hartree-Fock (Exact) Exchange  0.200          
                        Slater Exchange Functional  0.800 local    
                    Becke 1988 Exchange Functional  0.720 non-local
              Lee-Yang-Parr Correlation Functional  0.810          
                  VWN I RPA Correlation Functional  0.190 local    

             Grid Information
             ----------------
          Grid used for XC integration:  medium    
          Radial quadrature: Mura-Knowles        
          Angular quadrature: Lebedev. 
          Tag              B.-S. Rad. Rad. Pts. Rad. Cut. Ang. Pts.
          ---              ---------- --------- --------- ---------
          O                   0.60       49           6.0       434
          H                   0.35       45           8.0       434
          Grid pruning is: on 
          Number of quadrature shells:    94
          Spatial weights used:  Erf1

          Convergence Information
          -----------------------
          Convergence aids based upon iterative change in 
          total energy or number of iterations. 
          Levelshifting, if invoked, occurs when the 
          HOMO/LUMO gap drops below (HL_TOL):  1.00D-02
          DIIS, if invoked, will attempt to extrapolate 
          using up to (NFOCK): 10 stored Fock matrices.

                    Damping( 0%)  Levelshifting(0.5)       DIIS
                  --------------- ------------------- ---------------
          dE  on:    start            ASAP                start   
          dE off:    2 iters         50 iters            50 iters 


      Screening Tolerance Information
      -------------------------------
          Density screening/tol_rho:  1.00D-10
          AO Gaussian exp screening on grid/accAOfunc:  14
          CD Gaussian exp screening on grid/accCDfunc:  20
          XC Gaussian exp screening on grid/accXCfunc:  20
          Schwarz screening/accCoul:  1.00D-08


 Loading old vectors from job with title :

water MO calculation


      Symmetry analysis of molecular orbitals - initial
      -------------------------------------------------

  Numbering of irreducible representations: 

     1 a1          2 a2          3 b1          4 b2      

  Orbital symmetries:

     1 a1          2 a1          3 b1          4 a1          5 b2      
     6 a1          7 b1          8 a1          9 b1         10 b2      
    11 a1         12 b1         13 a1         14 a1         15 a2      

   Time after variat. SCF:      4.3
   Time prior to 1st pass:      4.3

 Grid_pts file          = ./water_MO.gridpts.00
 Record size in doubles =  12289        No. of grid_pts per rec  =   3070
 Max. records in memory =      2        Max. recs in file   =  16083341


           Memory utilization after 1st SCF pass: 
           Heap Space remaining (MW):       80.56            80562560
          Stack Space remaining (MW):      134.22           134217492

   convergence    iter        energy       DeltaE   RMS-Dens  Diis-err    time
 ---------------- ----- ----------------- --------- --------- ---------  ------
 d= 0,ls=0.0,diis     1    -76.2101068198 -8.20D+01  9.62D-03  9.83D-03     4.4
 d= 0,ls=0.0,diis     2    -76.2072439467  2.86D-03  5.69D-03  4.47D-02     4.5
 d= 0,ls=0.0,diis     3    -76.2123061970 -5.06D-03  6.32D-04  2.46D-04     4.6
 d= 0,ls=0.0,diis     4    -76.2123415845 -3.54D-05  7.70D-05  5.02D-06     4.7
 d= 0,ls=0.0,diis     5    -76.2123422987 -7.14D-07  3.74D-05  1.83D-07     4.8
 d= 0,ls=0.0,diis     6    -76.2123423428 -4.41D-08  8.51D-06  7.26D-08     4.8


         Total DFT energy =      -76.212342342801
      One electron energy =     -116.575840326881
           Coulomb energy =       43.593000527893
    Exchange-Corr. energy =       -9.017967549298
 Nuclear repulsion energy =        5.788465005485

 Numeric. integr. density =       10.000001047746

     Total iterative time =      0.5s



                  Occupations of the irreducible representations
                  ----------------------------------------------

                     irrep           alpha         beta
                     --------     --------     --------
                     a1                3.0          3.0
                     a2                0.0          0.0
                     b1                1.0          1.0
                     b2                1.0          1.0


                       DFT Final Molecular Orbital Analysis
                       ------------------------------------

 Vector    1  Occ=2.000000D+00  E=-1.919886D+01  Symmetry=a1
              MO Center=  1.6D-19, -1.6D-22,  3.9D-02, r^2= 1.5D-02
   Bfn.  Coefficient  Atom+Function         Bfn.  Coefficient  Atom+Function  
  ----- ------------  ---------------      ----- ------------  ---------------
     1      0.995114  1 O  s                  2      0.026121  1 O  s          

 Vector    2  Occ=2.000000D+00  E=-8.843743D-01  Symmetry=a1
              MO Center=  1.9D-17,  3.8D-17, -3.4D-02, r^2= 5.2D-01
   Bfn.  Coefficient  Atom+Function         Bfn.  Coefficient  Atom+Function  
  ----- ------------  ---------------      ----- ------------  ---------------
     6      0.538741  1 O  s                  2      0.516473  1 O  s          
     1     -0.228267  1 O  s                 15      0.048469  2 H  s          
    17      0.048469  3 H  s                  5     -0.041470  1 O  pz         
     9     -0.032256  1 O  pz         

 Vector    3  Occ=2.000000D+00  E=-3.905425D-01  Symmetry=b1
              MO Center=  2.3D-15, -7.4D-17, -3.1D-01, r^2= 1.4D+00
   Bfn.  Coefficient  Atom+Function         Bfn.  Coefficient  Atom+Function  
  ----- ------------  ---------------      ----- ------------  ---------------
     3      0.470140  1 O  px                 7      0.304050  1 O  px         
    16     -0.240275  2 H  s                 18      0.240275  3 H  s          
    15     -0.197805  2 H  s                 17      0.197805  3 H  s          

 Vector    4  Occ=2.000000D+00  E=-3.323037D-01  Symmetry=a1
              MO Center= -1.8D-15, -1.4D-16, -1.9D-01, r^2= 1.3D+00
   Bfn.  Coefficient  Atom+Function         Bfn.  Coefficient  Atom+Function  
  ----- ------------  ---------------      ----- ------------  ---------------
     5      0.511419  1 O  pz                 9      0.352417  1 O  pz         
    16     -0.234619  2 H  s                 18     -0.234619  3 H  s          
     6      0.206948  1 O  s                 15     -0.170015  2 H  s          
    17     -0.170015  3 H  s                  2      0.123299  1 O  s          
     1     -0.050963  1 O  s          

 Vector    5  Occ=2.000000D+00  E=-2.795097D-01  Symmetry=b2
              MO Center= -8.6D-17, -5.6D-17,  3.1D-02, r^2= 5.7D-01
   Bfn.  Coefficient  Atom+Function         Bfn.  Coefficient  Atom+Function  
  ----- ------------  ---------------      ----- ------------  ---------------
     4      0.666540  1 O  py                 8      0.482602  1 O  py         

 Vector    6  Occ=0.000000D+00  E=-1.027074D-01  Symmetry=a1
              MO Center=  1.3D-15, -2.1D-17, -5.5D-01, r^2= 2.3D+00
   Bfn.  Coefficient  Atom+Function         Bfn.  Coefficient  Atom+Function  
  ----- ------------  ---------------      ----- ------------  ---------------
    16      0.528632  2 H  s                 18      0.528632  3 H  s          
     5      0.424709  1 O  pz                 9      0.394072  1 O  pz         
     6     -0.337865  1 O  s                 15      0.212076  2 H  s          
    17      0.212076  3 H  s                  2     -0.122044  1 O  s          
     1      0.054469  1 O  s          

 Vector    7  Occ=0.000000D+00  E=-4.609608D-02  Symmetry=b1
              MO Center= -2.3D-15, -4.8D-17, -5.3D-01, r^2= 2.3D+00
   Bfn.  Coefficient  Atom+Function         Bfn.  Coefficient  Atom+Function  
  ----- ------------  ---------------      ----- ------------  ---------------
    16      0.577717  2 H  s                 18     -0.577717  3 H  s          
     7      0.499835  1 O  px                 3      0.496317  1 O  px         
    15      0.210267  2 H  s                 17     -0.210267  3 H  s          

 Vector    8  Occ=0.000000D+00  E= 6.740531D-01  Symmetry=a1
              MO Center=  1.9D-15, -3.3D-16, -7.8D-01, r^2= 3.1D+00
   Bfn.  Coefficient  Atom+Function         Bfn.  Coefficient  Atom+Function  
  ----- ------------  ---------------      ----- ------------  ---------------
    16     -0.881931  2 H  s                 18     -0.881931  3 H  s          
    15      0.822567  2 H  s                 17      0.822567  3 H  s          
     6      0.469242  1 O  s                  9     -0.384994  1 O  pz         
     5      0.292258  1 O  pz                14      0.093895  1 O  d  2       
     2     -0.070485  1 O  s          

 Vector    9  Occ=0.000000D+00  E= 7.249490D-01  Symmetry=b1
              MO Center= -1.6D-15, -4.7D-19, -8.6D-01, r^2= 3.3D+00
   Bfn.  Coefficient  Atom+Function         Bfn.  Coefficient  Atom+Function  
  ----- ------------  ---------------      ----- ------------  ---------------
    16      1.027758  2 H  s                 18     -1.027758  3 H  s          
    15     -0.820752  2 H  s                 17      0.820752  3 H  s          
     7      0.546789  1 O  px                 3     -0.318552  1 O  px         
    13      0.121549  1 O  d  1       

 Vector   10  Occ=0.000000D+00  E= 8.951239D-01  Symmetry=b2
              MO Center=  2.0D-17, -8.7D-17,  3.7D-02, r^2= 1.2D+00
   Bfn.  Coefficient  Atom+Function         Bfn.  Coefficient  Atom+Function  
  ----- ------------  ---------------      ----- ------------  ---------------
     8      1.050234  1 O  py                 4     -0.944331  1 O  py         

 Vector   11  Occ=0.000000D+00  E= 9.423500D-01  Symmetry=a1
              MO Center=  1.0D-17,  3.9D-16,  2.5D-01, r^2= 1.2D+00
   Bfn.  Coefficient  Atom+Function         Bfn.  Coefficient  Atom+Function  
  ----- ------------  ---------------      ----- ------------  ---------------
     9      0.983689  1 O  pz                 5     -0.864538  1 O  pz         
     6      0.470209  1 O  s                  2     -0.445057  1 O  s          
    15      0.284519  2 H  s                 17      0.284519  3 H  s          
    16     -0.152026  2 H  s                 18     -0.152026  3 H  s          
    14      0.059895  1 O  d  2               1      0.037028  1 O  s          

 Vector   12  Occ=0.000000D+00  E= 1.056975D+00  Symmetry=b1
              MO Center=  1.3D-16, -7.4D-19,  1.4D-01, r^2= 1.3D+00
   Bfn.  Coefficient  Atom+Function         Bfn.  Coefficient  Atom+Function  
  ----- ------------  ---------------      ----- ------------  ---------------
     7      1.202635  1 O  px                 3     -0.904600  1 O  px         
    15      0.350434  2 H  s                 17     -0.350434  3 H  s          
    13     -0.140134  1 O  d  1              16      0.052879  2 H  s          
    18     -0.052879  3 H  s          

 Vector   13  Occ=0.000000D+00  E= 1.197372D+00  Symmetry=a1
              MO Center= -3.5D-16,  6.6D-17, -3.0D-01, r^2= 1.1D+00
   Bfn.  Coefficient  Atom+Function         Bfn.  Coefficient  Atom+Function  
  ----- ------------  ---------------      ----- ------------  ---------------
     6      1.705095  1 O  s                  2     -1.497114  1 O  s          
     9     -0.475751  1 O  pz                16     -0.290624  2 H  s          
    18     -0.290624  3 H  s                  5      0.287050  1 O  pz         
    15     -0.141763  2 H  s                 17     -0.141763  3 H  s          
     1      0.093847  1 O  s                 14     -0.085709  1 O  d  2       

 Vector   14  Occ=0.000000D+00  E= 1.802894D+00  Symmetry=a1
              MO Center= -7.9D-17, -6.2D-17,  6.2D-02, r^2= 6.2D-01
   Bfn.  Coefficient  Atom+Function         Bfn.  Coefficient  Atom+Function  
  ----- ------------  ---------------      ----- ------------  ---------------
    12      0.979028  1 O  d  0              14     -0.199903  1 O  d  2       
     6     -0.066956  1 O  s                 15      0.061031  2 H  s          
    17      0.061031  3 H  s                  2      0.057334  1 O  s          
     9      0.057260  1 O  pz         

 Vector   15  Occ=0.000000D+00  E= 1.810158D+00  Symmetry=a2
              MO Center= -2.8D-17,  1.1D-16,  3.9D-02, r^2= 6.1D-01
   Bfn.  Coefficient  Atom+Function         Bfn.  Coefficient  Atom+Function  
  ----- ------------  ---------------      ----- ------------  ---------------
    10      1.000000  1 O  d -2       

 Vector   16  Occ=0.000000D+00  E= 1.823877D+00  Symmetry=b2
              MO Center=  9.4D-17,  8.5D-17,  4.8D-02, r^2= 6.1D-01
   Bfn.  Coefficient  Atom+Function         Bfn.  Coefficient  Atom+Function  
  ----- ------------  ---------------      ----- ------------  ---------------
    11      0.999900  1 O  d -1       

 Vector   17  Occ=0.000000D+00  E= 1.874273D+00  Symmetry=a1
              MO Center= -2.0D-15,  1.1D-16,  1.0D-02, r^2= 6.7D-01
   Bfn.  Coefficient  Atom+Function         Bfn.  Coefficient  Atom+Function  
  ----- ------------  ---------------      ----- ------------  ---------------
    14      0.979248  1 O  d  2              12      0.201809  1 O  d  0       
    15     -0.187686  2 H  s                 17     -0.187686  3 H  s          
     6      0.165101  1 O  s                  2     -0.150932  1 O  s          
     9     -0.116914  1 O  pz                 5      0.069350  1 O  pz         
    16      0.025135  2 H  s                 18      0.025135  3 H  s          

 Vector   18  Occ=0.000000D+00  E= 1.894370D+00  Symmetry=b1
              MO Center=  2.7D-15,  1.4D-17, -4.6D-02, r^2= 7.3D-01
   Bfn.  Coefficient  Atom+Function         Bfn.  Coefficient  Atom+Function  
  ----- ------------  ---------------      ----- ------------  ---------------
    13      0.999798  1 O  d  1              15      0.267718  2 H  s          
    17     -0.267718  3 H  s                  7      0.233782  1 O  px         
     3     -0.145794  1 O  px                16     -0.049125  2 H  s          
    18      0.049125  3 H  s          


 center of mass
 --------------
 x =   0.00000000 y =   0.00000000 z =  -0.10288160

 moments of inertia (a.u.)
 ------------------
           4.437963103124           0.000000000000           0.000000000000
           0.000000000000          16.014212999955           0.000000000000
           0.000000000000           0.000000000000          11.576249896831

     Multipole analysis of the density
     ---------------------------------

     L   x y z        total         alpha         beta         nuclear
     -   - - -        -----         -----         ----         -------
     0   0 0 0     -0.000000     -5.000000     -5.000000     10.000000

     1   1 0 0     -0.000000     -0.000000     -0.000000      0.000000
     1   0 1 0     -0.000000     -0.000000     -0.000000      0.000000
     1   0 0 1     -0.672035      0.871864      0.871864     -2.415762

     2   2 0 0     -2.201220     -6.843795     -6.843795     11.486369
     2   1 1 0     -0.000000     -0.000000     -0.000000      0.000000
     2   1 0 1      0.000000      0.000000      0.000000      0.000000
     2   0 2 0     -5.957777     -2.978889     -2.978889      0.000000
     2   0 1 1     -0.000000     -0.000000     -0.000000      0.000000
     2   0 0 2     -4.340145     -4.445239     -4.445239      4.550333


            General Information
            -------------------
          SCF calculation type: DFT
          Wavefunction type:  closed shell.
          No. of atoms     :     3
          No. of electrons :    10
           Alpha electrons :     5
            Beta electrons :     5
          Charge           :     0
          Spin multiplicity:     1
          Use of symmetry is: on ; symmetry adaption is: on 
          Maximum number of iterations:  50
          AO basis - number of functions:    18
                     number of shells:    10
          Convergence on energy requested:  1.00D-06
          Convergence on density requested:  1.00D-05
          Convergence on gradient requested:  5.00D-04

              XC Information
              --------------
                         B3LYP Method XC Potential
                     Hartree-Fock (Exact) Exchange  0.200          
                        Slater Exchange Functional  0.800 local    
                    Becke 1988 Exchange Functional  0.720 non-local
              Lee-Yang-Parr Correlation Functional  0.810          
                  VWN I RPA Correlation Functional  0.190 local    

             Grid Information
             ----------------
          Grid used for XC integration:  medium    
          Radial quadrature: Mura-Knowles        
          Angular quadrature: Lebedev. 
          Tag              B.-S. Rad. Rad. Pts. Rad. Cut. Ang. Pts.
          ---              ---------- --------- --------- ---------
          O                   0.60       49           6.0       434
          H                   0.35       45           8.0       434
          Grid pruning is: on 
          Number of quadrature shells:    94
          Spatial weights used:  Erf1

          Convergence Information
          -----------------------
          Convergence aids based upon iterative change in 
          total energy or number of iterations. 
          Levelshifting, if invoked, occurs when the 
          HOMO/LUMO gap drops below (HL_TOL):  1.00D-02
          DIIS, if invoked, will attempt to extrapolate 
          using up to (NFOCK): 10 stored Fock matrices.

                    Damping( 0%)  Levelshifting(0.5)       DIIS
                  --------------- ------------------- ---------------
          dE  on:    start            ASAP                start   
          dE off:    2 iters         50 iters            50 iters 


      Screening Tolerance Information
      -------------------------------
          Density screening/tol_rho:  1.00D-10
          AO Gaussian exp screening on grid/accAOfunc:  14
          CD Gaussian exp screening on grid/accCDfunc:  20
          XC Gaussian exp screening on grid/accXCfunc:  20
          Schwarz screening/accCoul:  1.00D-08



                            NWChem DFT Gradient Module
                            --------------------------


                               water MO calculation



  charge          =   0.00
  wavefunction    = closed shell

  Using symmetry


                         DFT ENERGY GRADIENTS

    atom               coordinates                        gradient
                 x          y          z           x          y          z
   1 O       0.000000   0.000000   0.073334    0.000000   0.000000   0.090137
   2 H      -2.396494   0.000000  -1.501218   -0.094155   0.000000  -0.045068
   3 H       2.396494   0.000000  -1.501218    0.094155   0.000000  -0.045068

                 ----------------------------------------
                 |  Time  |  1-e(secs)   |  2-e(secs)   |
                 ----------------------------------------
                 |  CPU   |       0.00   |       0.00   |
                 ----------------------------------------
                 |  WALL  |       0.00   |       0.00   |
                 ----------------------------------------

  Step       Energy      Delta E   Gmax     Grms     Xrms     Xmax   Walltime
  ---- ---------------- -------- -------- -------- -------- -------- --------
@    1     -76.21234234 -9.9D-02  0.09416  0.05766  0.20185  0.34511      5.0
                                                                    

 Limiting step in negative mode    1  eval=-4.9D-02 grad= 1.7D-01 step=-9.0D-02
 Restricting large step in mode    2 eval= 1.2D-01 step=-3.1D-01 new=-3.0D-01

                                 NWChem DFT Module
                                 -----------------


                               water MO calculation




 Summary of "ao basis" -> "ao basis" (spherical)
 ------------------------------------------------------------------------------
       Tag                 Description            Shells   Functions and Types
 ---------------- ------------------------------  ------  ---------------------
 O                           6-31G*                  6       14   3s2p1d
 H                           6-31G*                  2        2   2s


      Symmetry analysis of basis
      --------------------------

        a1          9
        a2          1
        b1          5
        b2          3

  Caching 1-el integrals 

            General Information
            -------------------
          SCF calculation type: DFT
          Wavefunction type:  closed shell.
          No. of atoms     :     3
          No. of electrons :    10
           Alpha electrons :     5
            Beta electrons :     5
          Charge           :     0
          Spin multiplicity:     1
          Use of symmetry is: on ; symmetry adaption is: on 
          Maximum number of iterations:  50
          AO basis - number of functions:    18
                     number of shells:    10
          Convergence on energy requested:  1.00D-06
          Convergence on density requested:  1.00D-05
          Convergence on gradient requested:  5.00D-04

              XC Information
              --------------
                         B3LYP Method XC Potential
                     Hartree-Fock (Exact) Exchange  0.200          
                        Slater Exchange Functional  0.800 local    
                    Becke 1988 Exchange Functional  0.720 non-local
              Lee-Yang-Parr Correlation Functional  0.810          
                  VWN I RPA Correlation Functional  0.190 local    

             Grid Information
             ----------------
          Grid used for XC integration:  medium    
          Radial quadrature: Mura-Knowles        
          Angular quadrature: Lebedev. 
          Tag              B.-S. Rad. Rad. Pts. Rad. Cut. Ang. Pts.
          ---              ---------- --------- --------- ---------
          O                   0.60       49           6.0       434
          H                   0.35       45           8.0       434
          Grid pruning is: on 
          Number of quadrature shells:    94
          Spatial weights used:  Erf1

          Convergence Information
          -----------------------
          Convergence aids based upon iterative change in 
          total energy or number of iterations. 
          Levelshifting, if invoked, occurs when the 
          HOMO/LUMO gap drops below (HL_TOL):  1.00D-02
          DIIS, if invoked, will attempt to extrapolate 
          using up to (NFOCK): 10 stored Fock matrices.

                    Damping( 0%)  Levelshifting(0.5)       DIIS
                  --------------- ------------------- ---------------
          dE  on:    start            ASAP                start   
          dE off:    2 iters         50 iters            50 iters 


      Screening Tolerance Information
      -------------------------------
          Density screening/tol_rho:  1.00D-10
          AO Gaussian exp screening on grid/accAOfunc:  14
          CD Gaussian exp screening on grid/accCDfunc:  20
          XC Gaussian exp screening on grid/accXCfunc:  20
          Schwarz screening/accCoul:  1.00D-08


 Loading old vectors from job with title :

water MO calculation


      Symmetry analysis of molecular orbitals - initial
      -------------------------------------------------

  Numbering of irreducible representations: 

     1 a1          2 a2          3 b1          4 b2      

  Orbital symmetries:

     1 a1          2 a1          3 b1          4 a1          5 b2      
     6 a1          7 b1          8 a1          9 b1         10 b2      
    11 a1         12 b1         13 a1         14 a1         15 a2      

   Time after variat. SCF:      5.2
   Time prior to 1st pass:      5.2

           Memory utilization after 1st SCF pass: 
           Heap Space remaining (MW):      134.22           134216112
          Stack Space remaining (MW):      134.22           134217492

   convergence    iter        energy       DeltaE   RMS-Dens  Diis-err    time
 ---------------- ----- ----------------- --------- --------- ---------  ------
 d= 0,ls=0.0,diis     1    -76.2284617943 -8.23D+01  7.90D-03  6.00D-03     5.3
 d= 0,ls=0.0,diis     2    -76.2285523467 -9.06D-05  3.87D-03  1.52D-02     5.4
 d= 0,ls=0.0,diis     3    -76.2302097641 -1.66D-03  8.02D-04  5.39D-04     5.5
 d= 0,ls=0.0,diis     4    -76.2302766963 -6.69D-05  1.91D-04  1.04D-05     5.6
 d= 0,ls=0.0,diis     5    -76.2302785384 -1.84D-06  2.43D-05  7.57D-07     5.7
 d= 0,ls=0.0,diis     6    -76.2302786338 -9.54D-08  6.53D-06  5.49D-08     5.8


         Total DFT energy =      -76.230278633798
      One electron energy =     -117.253243711168
           Coulomb energy =       43.980375281278
    Exchange-Corr. energy =       -9.051510801630
 Nuclear repulsion energy =        6.094100597722

 Numeric. integr. density =        9.999999732971

     Total iterative time =      0.6s



                  Occupations of the irreducible representations
                  ----------------------------------------------

                     irrep           alpha         beta
                     --------     --------     --------
                     a1                3.0          3.0
                     a2                0.0          0.0
                     b1                1.0          1.0
                     b2                1.0          1.0


                       DFT Final Molecular Orbital Analysis
                       ------------------------------------

 Vector    1  Occ=2.000000D+00  E=-1.918191D+01  Symmetry=a1
              MO Center= -5.0D-19, -1.8D-22, -9.4D-02, r^2= 1.5D-02
   Bfn.  Coefficient  Atom+Function         Bfn.  Coefficient  Atom+Function  
  ----- ------------  ---------------      ----- ------------  ---------------
     1      0.995110  1 O  s                  2      0.026273  1 O  s          

 Vector    2  Occ=2.000000D+00  E=-8.829621D-01  Symmetry=a1
              MO Center=  1.8D-16,  1.6D-17, -1.7D-01, r^2= 5.3D-01
   Bfn.  Coefficient  Atom+Function         Bfn.  Coefficient  Atom+Function  
  ----- ------------  ---------------      ----- ------------  ---------------
     6      0.536609  1 O  s                  2      0.508835  1 O  s          
     1     -0.226479  1 O  s                 15      0.058210  2 H  s          
    17      0.058210  3 H  s                  5     -0.046889  1 O  pz         
     9     -0.033412  1 O  pz         

 Vector    3  Occ=2.000000D+00  E=-4.115153D-01  Symmetry=b1
              MO Center= -1.0D-16,  1.0D-31, -3.7D-01, r^2= 1.4D+00
   Bfn.  Coefficient  Atom+Function         Bfn.  Coefficient  Atom+Function  
  ----- ------------  ---------------      ----- ------------  ---------------
     3      0.461692  1 O  px                 7      0.295069  1 O  px         
    16     -0.224882  2 H  s                 18      0.224882  3 H  s          
    15     -0.206395  2 H  s                 17      0.206395  3 H  s          

 Vector    4  Occ=2.000000D+00  E=-3.131811D-01  Symmetry=a1
              MO Center= -3.6D-17, -1.5D-16, -2.2D-01, r^2= 1.2D+00
   Bfn.  Coefficient  Atom+Function         Bfn.  Coefficient  Atom+Function  
  ----- ------------  ---------------      ----- ------------  ---------------
     5      0.532358  1 O  pz                 9      0.377344  1 O  pz         
     6      0.226935  1 O  s                 16     -0.221001  2 H  s          
    18     -0.221001  3 H  s                 15     -0.160622  2 H  s          
    17     -0.160622  3 H  s                  2      0.125887  1 O  s          
     1     -0.053535  1 O  s          

 Vector    5  Occ=2.000000D+00  E=-2.724040D-01  Symmetry=b2
              MO Center= -1.9D-16, -1.5D-17, -1.0D-01, r^2= 5.8D-01
   Bfn.  Coefficient  Atom+Function         Bfn.  Coefficient  Atom+Function  
  ----- ------------  ---------------      ----- ------------  ---------------
     4      0.661201  1 O  py                 8      0.488492  1 O  py         

 Vector    6  Occ=0.000000D+00  E=-9.808869D-02  Symmetry=a1
              MO Center= -5.2D-16, -4.4D-17, -5.7D-01, r^2= 2.4D+00
   Bfn.  Coefficient  Atom+Function         Bfn.  Coefficient  Atom+Function  
  ----- ------------  ---------------      ----- ------------  ---------------
    16      0.553579  2 H  s                 18      0.553579  3 H  s          
     6     -0.406921  1 O  s                  5      0.386345  1 O  pz         
     9      0.365127  1 O  pz                15      0.221749  2 H  s          
[...]
     2   0 0 2     -3.697096     -3.878613     -3.878613      4.060131


 HESSIAN: the one electron contributions are done in       0.0s


 HESSIAN: 2-el 1st deriv. term done in                     0.0s


 HESSIAN: 2-el 2nd deriv. term done in                     0.0s

  stpr_wrt_fd_from_sq: overwrite of existing file:./water_MO.hess
 stpr_wrt_fd_dipole: overwrite of existing file./water_MO.fd_ddipole

 HESSIAN: the two electron contributions are done in       0.1s

                                NWChem CPHF Module
                                ------------------


  scftype          =     RHF 
  nclosed          =        5
  nopen            =        0
  variables        =       65
  # of vectors     =        9
  tolerance        = 0.10D-03
  level shift      = 0.00D+00
  max iterations   =       50
  max subspace     =       90

 Grid integrated density:      10.000000274205
 Requested integration accuracy:   0.10E-13
 SCF residual:    1.0600456332087765E-006


Iterative solution of linear equations
  No. of variables       65
  No. of equations        9
  Maximum subspace       90
        Iterations       50
       Convergence  1.0D-04
        Start time     19.1


   iter   nsub   residual    time
   ----  ------  --------  ---------
     1      9    5.00D-01      19.2
     2     18    1.93D-01      19.8
     3     27    2.43D-03      20.5
     4     36    8.13D-05      21.0
 HESSIAN: the CPHF contributions are done
  stpr_wrt_fd_from_sq: overwrite of existing file:./water_MO.hess
 stpr_wrt_fd_dipole: overwrite of existing file./water_MO.fd_ddipole

 Derivative Dipole

  
  
 X vector of derivative dipole (au) [debye/angstrom]
 d_dipole_x/<atom=   1,x> =    -0.4112     [   -1.9751]
 d_dipole_x/<atom=   1,y> =     0.0000     [    0.0000]
 d_dipole_x/<atom=   1,z> =    -0.0000     [   -0.0000]
 d_dipole_x/<atom=   2,x> =     0.2056     [    0.9875]
 d_dipole_x/<atom=   2,y> =    -0.0000     [   -0.0000]
 d_dipole_x/<atom=   2,z> =    -0.1239     [   -0.5950]
 d_dipole_x/<atom=   3,x> =     0.2056     [    0.9875]
 d_dipole_x/<atom=   3,y> =    -0.0000     [   -0.0000]
 d_dipole_x/<atom=   3,z> =     0.1239     [    0.5950]
  
 Y vector of derivative dipole (au) [debye/angstrom]
 d_dipole_y/<atom=   1,x> =     0.0000     [    0.0000]
 d_dipole_y/<atom=   1,y> =    -0.7275     [   -3.4945]
 d_dipole_y/<atom=   1,z> =    -0.0000     [   -0.0000]
 d_dipole_y/<atom=   2,x> =     0.0000     [    0.0000]
 d_dipole_y/<atom=   2,y> =     0.3638     [    1.7472]
 d_dipole_y/<atom=   2,z> =    -0.0000     [   -0.0000]
 d_dipole_y/<atom=   3,x> =    -0.0000     [   -0.0000]
 d_dipole_y/<atom=   3,y> =     0.3638     [    1.7472]
 d_dipole_y/<atom=   3,z> =     0.0000     [    0.0000]
  
 Z vector of derivative dipole (au) [debye/angstrom]
 d_dipole_z/<atom=   1,x> =    -0.0000     [   -0.0000]
 d_dipole_z/<atom=   1,y> =    -0.0000     [   -0.0000]
 d_dipole_z/<atom=   1,z> =    -0.3440     [   -1.6522]
 d_dipole_z/<atom=   2,x> =    -0.0935     [   -0.4491]
 d_dipole_z/<atom=   2,y> =     0.0000     [    0.0000]
 d_dipole_z/<atom=   2,z> =     0.1720     [    0.8261]
 d_dipole_z/<atom=   3,x> =     0.0935     [    0.4491]
 d_dipole_z/<atom=   3,y> =     0.0000     [    0.0000]
 d_dipole_z/<atom=   3,z> =     0.1720     [    0.8261]
  
  
 HESSIAN: the Hessian is done


  Vibrational analysis via the FX method 

  See chapter 2 in "Molecular Vibrations" by Wilson, Decius and Cross

  Vib: Default input used 

  Nuclear Hessian passed symmetry test 



 ---------------------------- Atom information ----------------------------
     atom    #        X              Y              Z            mass
 --------------------------------------------------------------------------
    O        1  0.0000000D+00  0.0000000D+00 -2.2392763D-01  1.5994910D+01
    H        2 -1.4411330D+00  0.0000000D+00 -1.3525868D+00  1.0078250D+00
    H        3  1.4411330D+00  0.0000000D+00 -1.3525868D+00  1.0078250D+00
 --------------------------------------------------------------------------




          ----------------------------------------------------
          MASS-WEIGHTED NUCLEAR HESSIAN (Hartree/Bohr/Bohr/Kamu)
          ----------------------------------------------------


               1            2            3            4            5            6            7            8            9
   ----- ----- ----- ----- -----
    1    4.05312D+01
    2    1.71640D-08 -2.86703D-05
    3   -1.21404D-08 -3.93265D-09  2.80677D+01
    4   -8.07360D+01  6.58569D-09 -4.62684D+01  3.52803D+02
    5   -3.41781D-08  4.21781D-04 -6.76914D-09  5.98632D-08 -8.77428D-04
    6   -6.32306D+01  1.07114D-08 -5.59092D+01  2.18112D+02 -2.13316D-08  2.10006D+02
    7   -8.07360D+01 -4.08197D-09  4.62684D+01 -3.11663D+01  8.12708D-09  3.37871D+01  3.52803D+02
    8   -3.41774D-08  4.21782D-04 -6.77036D-09  5.98645D-08 -7.87974D-04  7.35460D-08  7.62920D-08 -8.77427D-04
    9    6.32306D+01  4.97134D-09 -5.59092D+01 -3.37871D+01 -9.89808D-09  1.27256D+01 -2.18112D+02 -9.90647D-09  2.10006D+02



          -------------------------------------------------
          NORMAL MODE EIGENVECTORS IN CARTESIAN COORDINATES
          -------------------------------------------------
                 (Frequencies expressed in cm-1)

                    1           2           3           4           5           6
 
 Frequency         -7.01       -4.81       -3.61       -3.33       -1.54        2.09
 
           1    -0.00001     0.23136     0.06645    -0.00674    -0.00000     0.00000
           2     0.07745     0.00000    -0.00001    -0.00000     0.00000     0.23774
           3    -0.00000    -0.00017    -0.02320    -0.23449    -0.00001    -0.00000
           4     0.00001     0.02295     0.45643    -0.04517     0.00001     0.00001
           5    -0.66972    -0.00001    -0.00001    -0.00003     0.70436     0.21817
           6    -0.00002     0.26595    -0.52114    -0.18542    -0.00003    -0.00001
           7     0.00001     0.02295     0.45643    -0.04516     0.00001     0.00001
           8    -0.66972    -0.00004     0.00003     0.00003    -0.70436     0.21817
           9     0.00002    -0.26628     0.47475    -0.28355     0.00001     0.00001

                    7           8           9
 
 Frequency       1710.84     3721.09     3844.90
 
           1    -0.00000     0.00000    -0.06730
           2    -0.00000    -0.00000    -0.00000
           3     0.06801     0.04869     0.00000
           4     0.41002    -0.57271     0.53407
           5     0.00000    -0.00000     0.00000
           6    -0.53971    -0.38640     0.41827
           7    -0.41002     0.57271     0.53407
           8    -0.00000    -0.00000     0.00000
           9    -0.53971    -0.38640    -0.41827



 ----------------------------------------------------------------------------
 Normal Eigenvalue ||         Derivative Dipole Moments (debye/angs)
  Mode   [cm**-1]  ||      [d/dqX]             [d/dqY]           [d/dqZ]
 ------ ---------- || ------------------ ------------------ -----------------
    1       -7.010 ||       0.000              -2.611            -0.000
    2       -4.813 ||       0.728               0.000             0.000
    3       -3.611 ||       1.363               0.000             0.000
    4       -3.334 ||       0.134              -0.000            -0.000
    5       -1.537 ||       0.000              -0.000             0.000
    6        2.092 ||       0.000              -0.068            -0.000
    7     1710.845 ||      -0.000               0.000             1.372
    8     3721.092 ||      -0.000              -0.000            -0.204
    9     3844.898 ||       0.690              -0.000             0.000
 ----------------------------------------------------------------------------



  
  
 ----------------------------------------------------------------------------
 Normal Eigenvalue ||                 Infra Red Intensities
  Mode   [cm**-1]  || [atomic units] [(debye/angs)**2] [(KM/mol)] [arbitrary]
 ------ ---------- || -------------- ----------------- ---------- -----------
    1       -7.010 ||    0.295486           6.817       288.054      52.760
    2       -4.813 ||    0.022991           0.530        22.413       4.105
    3       -3.611 ||    0.080496           1.857        78.472      14.373
    4       -3.334 ||    0.000782           0.018         0.762       0.140
    5       -1.537 ||    0.000000           0.000         0.000       0.000
    6        2.092 ||    0.000203           0.005         0.198       0.036
    7     1710.845 ||    0.081641           1.884        79.588      14.577
    8     3721.092 ||    0.001812           0.042         1.766       0.323
    9     3844.898 ||    0.020638           0.476        20.119       3.685
 ----------------------------------------------------------------------------





        Vibrational analysis via the FX method 
  --- with translations and rotations projected out ---
  --- via the Eckart algorithm                      ---
 Projected Nuclear Hessian trans-rot subspace norm:1.7333D-32
                         (should be close to zero!) 

          --------------------------------------------------------
          MASS-WEIGHTED PROJECTED HESSIAN (Hartree/Bohr/Bohr/Kamu)
          --------------------------------------------------------


               1            2            3            4            5            6            7            8            9
   ----- ----- ----- ----- -----
    1    4.05319D+01
    2    4.84830D-24  0.00000D+00
    3    3.87671D-07  8.08051D-25  2.80680D+01
    4   -8.07356D+01 -4.82868D-24 -4.62684D+01  3.52802D+02
    5   -1.28765D-23  5.27420D-20  3.21912D-24  2.56487D-23  0.00000D+00
    6   -6.32301D+01 -6.43824D-24 -5.59088D+01  2.18110D+02  1.60304D-23  2.10004D+02
    7   -8.07356D+01  0.00000D+00  4.62684D+01 -3.11672D+01  3.52670D-23  3.37860D+01  3.52802D+02
    8   -1.04621D-23  0.00000D+00  2.41434D-24  2.56487D-23  0.00000D+00  8.01522D-24  2.56487D-23  0.00000D+00
    9    6.32301D+01 -2.41434D-24 -5.59087D+01 -3.37860D+01 -2.56487D-23  1.27254D+01 -2.18110D+02 -2.56487D-23  2.10004D+02

 center of mass
 --------------
 x =   0.00000000 y =   0.00000000 z =  -0.35024141

 moments of inertia (a.u.)
 ------------------
           2.280317529649           0.000000000000           0.000000000000
           0.000000000000           6.466549256305           0.000000000000
           0.000000000000           0.000000000000           4.186231726656

 Rotational Constants
 --------------------
 A=  26.399909 cm-1  ( 37.982732 K)
 B=  14.380517 cm-1  ( 20.689894 K)
 C=   9.309475 cm-1  ( 13.393958 K)


 Temperature                      =   298.15K
 frequency scaling parameter      =   1.0000

 Zero-Point correction to Energy  =   13.256 kcal/mol  (  0.021124 au)
 Thermal correction to Energy     =   15.033 kcal/mol  (  0.023957 au)
 Thermal correction to Enthalpy   =   15.626 kcal/mol  (  0.024901 au)

 Total Entropy                    =   45.115 cal/mol-K
   - Translational                =   34.593 cal/mol-K (mol. weight =  18.0106)
   - Rotational                   =   10.517 cal/mol-K (symmetry #  =        2)
   - Vibrational                  =    0.005 cal/mol-K

 Cv (constant volume heat capacity) =    5.994 cal/mol-K
   - Translational                  =    2.979 cal/mol-K
   - Rotational                     =    2.979 cal/mol-K
   - Vibrational                    =    0.035 cal/mol-K



          -------------------------------------------------
          NORMAL MODE EIGENVECTORS IN CARTESIAN COORDINATES
          -------------------------------------------------
             (Projected Frequencies expressed in cm-1)

                    1           2           3           4           5           6
 
 P.Frequency       -0.00        0.00        0.00        0.00        0.00        0.00
 
           1     0.04866     0.00000     0.00000     0.00000    -0.23579    -0.00511
           2     0.00000     0.25004     0.00000     0.00000     0.00000     0.00000
           3    -0.02464     0.00000     0.00000     0.00000    -0.00001    -0.23434
           4    -0.39275     0.00000     0.00000     0.00000    -0.23438     0.04129
           5     0.00000     0.00000     0.99611     0.00000     0.00000     0.00000
           6     0.53897     0.00000     0.00000     0.00000    -0.00180    -0.29359
           7    -0.39275     0.00000     0.00000     0.00000    -0.23438     0.04129
           8     0.00000     0.00000     0.00000     0.99611     0.00000     0.00000
           9    -0.58825     0.00000     0.00000     0.00000     0.00179    -0.17509

                    7           8           9
 
 P.Frequency     1710.83     3721.09     3844.88
 
           1    -0.00000     0.00000    -0.06730
           2     0.00000     0.00000     0.00000
           3     0.06801     0.04869     0.00000
           4     0.41002    -0.57271     0.53407
           5     0.00000     0.00000     0.00000
           6    -0.53971    -0.38640     0.41827
           7    -0.41002     0.57271     0.53407
           8     0.00000     0.00000     0.00000
           9    -0.53971    -0.38640    -0.41827



 ----------------------------------------------------------------------------
 Normal Eigenvalue ||    Projected Derivative Dipole Moments (debye/angs)
  Mode   [cm**-1]  ||      [d/dqX]             [d/dqY]           [d/dqZ]
 ------ ---------- || ------------------ ------------------ -----------------
    1       -0.000 ||       1.542               0.000             0.000
    2        0.000 ||       0.000              -0.874            -0.000
    3        0.000 ||      -0.000               1.740             0.000
    4        0.000 ||      -0.000               1.740             0.000
    5        0.000 ||       0.005               0.000            -0.000
    6        0.000 ||      -0.162              -0.000             0.000
    7     1710.834 ||       0.000               0.000             1.372
    8     3721.090 ||      -0.000              -0.000            -0.204
    9     3844.884 ||       0.690              -0.000             0.000
 ----------------------------------------------------------------------------



  
  
 ----------------------------------------------------------------------------
 Normal Eigenvalue ||           Projected Infra Red Intensities
  Mode   [cm**-1]  || [atomic units] [(debye/angs)**2] [(KM/mol)] [arbitrary]
 ------ ---------- || -------------- ----------------- ---------- -----------
    1       -0.000 ||    0.103128           2.379       100.534      18.414
    2        0.000 ||    0.033092           0.763        32.260       5.909
    3        0.000 ||    0.131298           3.029       127.996      23.444
    4        0.000 ||    0.131298           3.029       127.996      23.444
    5        0.000 ||    0.000001           0.000         0.001       0.000
    6        0.000 ||    0.001140           0.026         1.111       0.204
    7     1710.834 ||    0.081641           1.884        79.588      14.577
    8     3721.090 ||    0.001812           0.042         1.766       0.323
    9     3844.884 ||    0.020638           0.476        20.119       3.685
 ----------------------------------------------------------------------------



 vib:animation  F

 Task  times  cpu:        5.8s     wall:        5.8s


                                NWChem Input Module
                                -------------------


 Summary of allocated global arrays
-----------------------------------
  No active global arrays


MA_summarize_allocated_blocks: starting scan ...
heap block 'gridpts', handle 86, address 0x104c0cc8:
	type of elements:		double precision
	number of elements:		53628946
	address of client space:	0x104c0d40
	index for client space:		8972191
	total number of bytes:		429031696
MA_summarize_allocated_blocks: scan completed: 1 heap block, 0 stack blocks
MA usage statistics:

	allocation statistics:
					      heap	     stack
					      ----	     -----
	current number of blocks	         1	         0
	maximum number of blocks	        26	        57
	current total bytes		 429031696	         0
	maximum total bytes		 429242576	  65517384
	maximum total K-bytes		    429243	     65518
	maximum total M-bytes		       430	        66


                                     CITATION
                                     --------
                Please cite the following reference when publishing
                           results obtained with NWChem:

          E. Apra, E. J. Bylaska, W. A. de Jong, N. Govind, K. Kowalski,
       T. P. Straatsma, M. Valiev, H. J. J. van Dam, Y. Alexeev, J. Anchell,
       V. Anisimov, F. W. Aquino, R. Atta-Fynn, J. Autschbach, N. P. Bauman,
     J. C. Becca, D. E. Bernholdt, K. Bhaskaran-Nair, S. Bogatko, P. Borowski,
         J. Boschen, J. Brabec, A. Bruner, E. Cauet, Y. Chen, G. N. Chuev,
      C. J. Cramer, J. Daily, M. J. O. Deegan, T. H. Dunning Jr., M. Dupuis,
   K. G. Dyall, G. I. Fann, S. A. Fischer, A. Fonari, H. Fruchtl, L. Gagliardi,
      J. Garza, N. Gawande, S. Ghosh, K. Glaesemann, A. W. Gotz, J. Hammond,
       V. Helms, E. D. Hermes, K. Hirao, S. Hirata, M. Jacquelin, L. Jensen,
   B. G. Johnson, H. Jonsson, R. A. Kendall, M. Klemm, R. Kobayashi, V. Konkov,
      S. Krishnamoorthy, M. Krishnan, Z. Lin, R. D. Lins, R. J. Littlefield,
      A. J. Logsdail, K. Lopata, W. Ma, A. V. Marenich, J. Martin del Campo,
   D. Mejia-Rodriguez, J. E. Moore, J. M. Mullin, T. Nakajima, D. R. Nascimento,
    J. A. Nichols, P. J. Nichols, J. Nieplocha, A. Otero-de-la-Roza, B. Palmer,
    A. Panyala, T. Pirojsirikul, B. Peng, R. Peverati, J. Pittner, L. Pollack,
   R. M. Richard, P. Sadayappan, G. C. Schatz, W. A. Shelton, D. W. Silverstein,
   D. M. A. Smith, T. A. Soares, D. Song, M. Swart, H. L. Taylor, G. S. Thomas,
            V. Tipparaju, D. G. Truhlar, K. Tsemekhman, T. Van Voorhis,
      A. Vazquez-Mayagoitia, P. Verma, O. Villa, A. Vishnu, K. D. Vogiatzis,
        D. Wang, J. H. Weare, M. J. Williamson, T. L. Windus, K. Wolinski,
        A. T. Wong, Q. Wu, C. Yang, Q. Yu, M. Zacharias, Z. Zhang, Y. Zhao,
                                and R. J. Harrison
                        "NWChem: Past, present, and future
                         J. Chem. Phys. 152, 184102 (2020)
                               doi:10.1063/5.0004997

                                      AUTHORS
                                      -------
  E. Apra, E. J. Bylaska, N. Govind, K. Kowalski, M. Valiev, D. Mejia-Rodriguez,
       A. Kunitsa, N. P. Bauman, A. Panyala, W. A. de Jong, T. P. Straatsma,
   H. J. J. van Dam, D. Wang, T. L. Windus, J. Hammond, J. Autschbach, A. Woods,
    K. Bhaskaran-Nair, J. Brabec, K. Lopata, S. A. Fischer, S. Krishnamoorthy,
     M. Jacquelin, W. Ma, M. Klemm, O. Villa, Y. Chen, V. Anisimov, F. Aquino,
     S. Hirata, M. T. Hackler, E. Hermes, L. Jensen, J. E. Moore, J. C. Becca,
      V. Konjkov, T. Risthaus, M. Malagoli, A. Marenich, A. Otero-de-la-Roza,
        J. Mullin, P. Nichols, R. Peverati, J. Pittner, Y. Zhao, P.-D. Fan,
        A. Fonari, M. J. Williamson, R. J. Harrison, J. R. Rehr, M. Dupuis,
     D. Silverstein, D. M. A. Smith, J. Nieplocha, V. Tipparaju, M. Krishnan,
     B. E. Van Kuiken, A. Vazquez-Mayagoitia, M. Swart, Q. Wu, T. Van Voorhis,
     A. A. Auer, M. Nooijen, L. D. Crosby, E. Brown, G. Cisneros, G. I. Fann,
   H. Fruchtl, J. Garza, K. Hirao, R. A. Kendall, J. A. Nichols, K. Tsemekhman,
    K. Wolinski, J. Anchell, D. E. Bernholdt, P. Borowski, T. Clark, D. Clerc,
   H. Dachsel, M. J. O. Deegan, K. Dyall, D. Elwood, E. Glendening, M. Gutowski,
   A. C. Hess, J. Jaffe, B. G. Johnson, J. Ju, R. Kobayashi, R. Kutteh, Z. Lin,
   R. Littlefield, X. Long, B. Meng, T. Nakajima, S. Niu, L. Pollack, M. Rosing,
   K. Glaesemann, G. Sandrone, M. Stave, H. Taylor, G. Thomas, J. H. van Lenthe,
                               A. T. Wong, Z. Zhang.

 Total times  cpu:       22.3s     wall:       22.3s
