 argument  1 = h2o.inp
                                         
                                         


             Northwest Computational Chemistry Package (NWChem) 7.0.0
             --------------------------------------------------------


                    Environmental Molecular Sciences Laboratory
                       Pacific Northwest National Laboratory
                                Richland, WA 99352

                              Copyright (c) 1994-2019
                       Pacific Northwest National Laboratory
                            Battelle Memorial Institute

             NWChem is an open-source computational chemistry package
                        distributed under the terms of the
                      Educational Community License (ECL) 2.0
             A copy of the license is included with this distribution
                              in the LICENSE.TXT file

                                  ACKNOWLEDGMENT
                                  --------------

            This software and its documentation were developed at the
            EMSL at Pacific Northwest National Laboratory, a multiprogram
            national laboratory, operated for the U.S. Department of Energy
            by Battelle under Contract Number DE-AC05-76RL01830. Support
            for this work was provided by the Department of Energy Office
            of Biological and Environmental Research, Office of Basic
            Energy Sciences, and the Office of Advanced Scientific Computing.


           Job information
           ---------------

    hostname        = Amanda-Dewyers-MacBook-Air.local
    program         = nwchem
    date            = Wed Nov 11 14:29:55 2020

    compiled        = Fri_Jul_03_06:05:09_2020
    source          = /private/tmp/nwchem-20200703-71421-tc8c0i/nwchem-7.0.0
    nwchem branch   = 7.0.0
    nwchem revision = 2c9a1c7c
    ga revision     = 5.7.1
    use scalapack   = T
    input           = h2o.inp
    prefix          = h2o.
    data base       = ./h2o.db
    status          = startup
    nproc           =        1
    time left       =     -1s



           Memory information
           ------------------

    heap     =   13107196 doubles =    100.0 Mbytes
    stack    =   13107201 doubles =    100.0 Mbytes
    global   =   26214400 doubles =    200.0 Mbytes (distinct from heap & stack)
    total    =   52428797 doubles =    400.0 Mbytes
    verify   = yes
    hardfail = no 


           Directory information
           ---------------------

  0 permanent = .
  0 scratch   = .




                                NWChem Input Module
                                -------------------


               DFT single point energy for water using B3LYP/6-31G*
               ----------------------------------------------------

          ------
          auto-z
          ------
  no constraints, skipping    0.0000000000000000     
  no constraints, skipping    0.0000000000000000     


                             Geometry "geometry" -> ""
                             -------------------------

 Output coordinates in a.u. (scale by  1.000000000 to convert to a.u.)

  No.       Tag          Charge          X              Y              Z
 ---- ---------------- ---------- -------------- -------------- --------------
    1 O                    8.0000     0.00000000     0.00000000     0.22143053
    2 H                    1.0000     0.00000000     1.43042809    -0.88572213
    3 H                    1.0000     0.00000000    -1.43042809    -0.88572213

      Atomic Mass 
      ----------- 

      O                 15.994910
      H                  1.007825


 Effective nuclear repulsion energy (a.u.)       9.1949809303

            Nuclear Dipole moment (a.u.) 
            ----------------------------
        X                 Y               Z
 ---------------- ---------------- ----------------
     0.0000000000     0.0000000000     0.0000000000



                                Z-matrix (autoz)
                                -------- 

 Units are Angstrom for bonds and degrees for angles

      Type          Name      I     J     K     L     M      Value
      ----------- --------  ----- ----- ----- ----- ----- ----------
    1 Stretch                  1     2                       0.95720
    2 Stretch                  1     3                       0.95720
    3 Bend                     2     1     3               104.52019


            XYZ format geometry
            -------------------
     3
 geometry
 O                     0.00000000     0.00000000     0.11717600
 H                     0.00000000     0.75695000    -0.46870400
 H                     0.00000000    -0.75695000    -0.46870400

 ==============================================================================
                                internuclear distances
 ------------------------------------------------------------------------------
       center one      |      center two      | atomic units |       a.u.
 ------------------------------------------------------------------------------
    2 H                |   1 O                |     1.80884  |     1.80884
    3 H                |   1 O                |     1.80884  |     1.80884
 ------------------------------------------------------------------------------
                         number of included internuclear distances:          2
 ==============================================================================



 ==============================================================================
                                 internuclear angles
 ------------------------------------------------------------------------------
        center 1       |       center 2       |       center 3       |  degrees
 ------------------------------------------------------------------------------
    2 H                |   1 O                |   3 H                |   104.52
 ------------------------------------------------------------------------------
                            number of included internuclear angles:          1
 ==============================================================================



  library name resolved from: .nwchemrc
  library file name is: </usr/local/Cellar/nwchem/7.0.0_2/share/nwchem/libraries/>
  


 Summary of "ao basis" -> "" (cartesian)
 ------------------------------------------------------------------------------
       Tag                 Description            Shells   Functions and Types
 ---------------- ------------------------------  ------  ---------------------
 *                           6-31G*                   on all atoms 



                                 NWChem DFT Module
                                 -----------------


               DFT single point energy for water using B3LYP/6-31G*


                      Basis "ao basis" -> "ao basis" (cartesian)
                      -----
  O (Oxygen)
  ----------
            Exponent  Coefficients 
       -------------- ---------------------------------------------------------
  1 S  5.48467170E+03  0.001831
  1 S  8.25234950E+02  0.013950
  1 S  1.88046960E+02  0.068445
  1 S  5.29645000E+01  0.232714
  1 S  1.68975700E+01  0.470193
  1 S  5.79963530E+00  0.358521

  2 S  1.55396160E+01 -0.110778
  2 S  3.59993360E+00 -0.148026
  2 S  1.01376180E+00  1.130767

  3 P  1.55396160E+01  0.070874
  3 P  3.59993360E+00  0.339753
  3 P  1.01376180E+00  0.727159

  4 S  2.70005800E-01  1.000000

  5 P  2.70005800E-01  1.000000

  6 D  8.00000000E-01  1.000000

  H (Hydrogen)
  ------------
            Exponent  Coefficients 
       -------------- ---------------------------------------------------------
  1 S  1.87311370E+01  0.033495
  1 S  2.82539370E+00  0.234727
  1 S  6.40121700E-01  0.813757

  2 S  1.61277800E-01  1.000000



 Summary of "ao basis" -> "ao basis" (cartesian)
 ------------------------------------------------------------------------------
       Tag                 Description            Shells   Functions and Types
 ---------------- ------------------------------  ------  ---------------------
 O                           6-31G*                  6       15   3s2p1d
 H                           6-31G*                  2        2   2s




 Summary of "ao basis" -> "ao basis" (cartesian)
 ------------------------------------------------------------------------------
       Tag                 Description            Shells   Functions and Types
 ---------------- ------------------------------  ------  ---------------------
 O                           6-31G*                  6       15   3s2p1d
 H                           6-31G*                  2        2   2s


  Caching 1-el integrals 

            General Information
            -------------------
          SCF calculation type: DFT
          Wavefunction type:  closed shell.
          No. of atoms     :     3
          No. of electrons :    10
           Alpha electrons :     5
            Beta electrons :     5
          Charge           :     0
          Spin multiplicity:     1
          Use of symmetry is: off; symmetry adaption is: off
          Maximum number of iterations:  30
          AO basis - number of functions:    19
                     number of shells:    10
          Convergence on energy requested:  1.00D-06
          Convergence on density requested:  1.00D-05
          Convergence on gradient requested:  5.00D-04

              XC Information
              --------------
                         B3LYP Method XC Potential
                     Hartree-Fock (Exact) Exchange  0.200          
                        Slater Exchange Functional  0.800 local    
                    Becke 1988 Exchange Functional  0.720 non-local
              Lee-Yang-Parr Correlation Functional  0.810          
                  VWN I RPA Correlation Functional  0.190 local    

             Grid Information
             ----------------
          Grid used for XC integration:  medium    
          Radial quadrature: Mura-Knowles        
          Angular quadrature: Lebedev. 
          Tag              B.-S. Rad. Rad. Pts. Rad. Cut. Ang. Pts.
          ---              ---------- --------- --------- ---------
          O                   0.60       49           5.0       434
          H                   0.35       45           6.0       434
          Grid pruning is: on 
          Number of quadrature shells:   139
          Spatial weights used:  Erf1

          Convergence Information
          -----------------------
          Convergence aids based upon iterative change in 
          total energy or number of iterations. 
          Levelshifting, if invoked, occurs when the 
          HOMO/LUMO gap drops below (HL_TOL):  1.00D-02
          DIIS, if invoked, will attempt to extrapolate 
          using up to (NFOCK): 10 stored Fock matrices.

                    Damping( 0%)  Levelshifting(0.5)       DIIS
                  --------------- ------------------- ---------------
          dE  on:    start            ASAP                start   
          dE off:    2 iters         30 iters            30 iters 


      Screening Tolerance Information
      -------------------------------
          Density screening/tol_rho:  1.00D-10
          AO Gaussian exp screening on grid/accAOfunc:  14
          CD Gaussian exp screening on grid/accCDfunc:  20
          XC Gaussian exp screening on grid/accXCfunc:  20
          Schwarz screening/accCoul:  1.00D-08


      Superposition of Atomic Density Guess
      -------------------------------------

 Sum of atomic energies:         -75.75081731

      Non-variational initial energy
      ------------------------------

 Total energy =     -75.919497
 1-e energy   =    -121.734217
 2-e energy   =      36.619739
 HOMO         =      -0.470409
 LUMO         =       0.114815

   Time after variat. SCF:      0.1
   Time prior to 1st pass:      0.1

 #quartets = 1.540D+03 #integrals = 8.874D+03 #direct =  0.0% #cached =100.0%


 Integral file          = ./h2o.aoints.0
 Record size in doubles =  65536        No. of integs per rec  =  43688
 Max. records in memory =      2        Max. records in file   = 393014
 No. of bits per label  =      8        No. of bits per value  =     64


 Grid_pts file          = ./h2o.gridpts.0
 Record size in doubles =  12289        No. of grid_pts per rec  =   3070
 Max. records in memory =     23        Max. recs in file   =   2095909


           Memory utilization after 1st SCF pass: 
           Heap Space remaining (MW):       12.69            12691868
          Stack Space remaining (MW):       13.11            13106964

   convergence    iter        energy       DeltaE   RMS-Dens  Diis-err    time
 ---------------- ----- ----------------- --------- --------- ---------  ------
 d= 0,ls=0.0,diis     1    -76.3720039535 -8.56D+01  4.04D-02  3.79D-01     0.2
 d= 0,ls=0.0,diis     2    -76.3684520883  3.55D-03  1.98D-02  4.52D-01     0.3
 d= 0,ls=0.0,diis     3    -76.4076863096 -3.92D-02  2.62D-03  1.17D-02     0.3
 d= 0,ls=0.0,diis     4    -76.4086999454 -1.01D-03  2.34D-04  7.17D-05     0.4
 d= 0,ls=0.0,diis     5    -76.4087069540 -7.01D-06  1.00D-05  4.19D-08     0.4
 d= 0,ls=0.0,diis     6    -76.4087069596 -5.58D-09  1.76D-06  1.10D-09     0.5


         Total DFT energy =      -76.408706959630
      One electron energy =     -123.129779701403
           Coulomb energy =       46.880507006665
    Exchange-Corr. energy =       -9.354415195167
 Nuclear repulsion energy =        9.194980930276

 Numeric. integr. density =       10.000001210333

     Total iterative time =      0.4s



                       DFT Final Molecular Orbital Analysis
                       ------------------------------------

 Vector    1  Occ=2.000000D+00  E=-1.913572D+01
              MO Center=  1.2D-15, -1.1D-14,  1.2D-01, r^2= 1.5D-02
   Bfn.  Coefficient  Atom+Function         Bfn.  Coefficient  Atom+Function  
  ----- ------------  ---------------      ----- ------------  ---------------
     1      0.992846  1 O  s                  2      0.026236  1 O  s          

 Vector    2  Occ=2.000000D+00  E=-1.002137D+00
              MO Center= -1.5D-12, -7.0D-11, -9.0D-02, r^2= 5.0D-01
   Bfn.  Coefficient  Atom+Function         Bfn.  Coefficient  Atom+Function  
  ----- ------------  ---------------      ----- ------------  ---------------
     2      0.468963  1 O  s                  6      0.434709  1 O  s          
     1     -0.209273  1 O  s                 16      0.141500  2 H  s          
    18      0.141500  3 H  s                  5     -0.129177  1 O  pz         
     9     -0.059516  1 O  pz         

 Vector    3  Occ=2.000000D+00  E=-5.229834D-01
              MO Center= -3.1D-13,  1.0D-10, -1.1D-01, r^2= 7.8D-01
   Bfn.  Coefficient  Atom+Function         Bfn.  Coefficient  Atom+Function  
  ----- ------------  ---------------      ----- ------------  ---------------
     4      0.518707  1 O  py                 8      0.267103  1 O  py         
    16      0.238842  2 H  s                 18     -0.238842  3 H  s          
    17      0.138593  2 H  s                 19     -0.138593  3 H  s          
    14     -0.071404  1 O  dyz        

 Vector    4  Occ=2.000000D+00  E=-3.712112D-01
              MO Center= -1.7D-12, -1.5D-12,  2.0D-01, r^2= 6.9D-01
   Bfn.  Coefficient  Atom+Function         Bfn.  Coefficient  Atom+Function  
  ----- ------------  ---------------      ----- ------------  ---------------
     5      0.554234  1 O  pz                 6      0.409716  1 O  s          
     9      0.374739  1 O  pz                 2      0.176553  1 O  s          
    16     -0.141832  2 H  s                 18     -0.141832  3 H  s          
    17     -0.110763  2 H  s                 19     -0.110763  3 H  s          
     1     -0.087773  1 O  s                 15     -0.052684  1 O  dzz        

 Vector    5  Occ=2.000000D+00  E=-2.917376D-01
              MO Center=  2.7D-12, -7.4D-13,  9.6D-02, r^2= 6.0D-01
   Bfn.  Coefficient  Atom+Function         Bfn.  Coefficient  Atom+Function  
  ----- ------------  ---------------      ----- ------------  ---------------
     3      0.644216  1 O  px                 7      0.506423  1 O  px         
    12     -0.062058  1 O  dxz        

 Vector    6  Occ=0.000000D+00  E= 6.589696D-02
              MO Center=  2.3D-13, -2.6D-11, -6.2D-01, r^2= 2.4D+00
   Bfn.  Coefficient  Atom+Function         Bfn.  Coefficient  Atom+Function  
  ----- ------------  ---------------      ----- ------------  ---------------
     6      1.285446  1 O  s                 17     -0.981601  2 H  s          
    19     -0.981601  3 H  s                  9     -0.472773  1 O  pz         
     5     -0.273674  1 O  pz                 2      0.118756  1 O  s          
     1     -0.101550  1 O  s                 16     -0.093400  2 H  s          
    18     -0.093400  3 H  s                 10     -0.059200  1 O  dxx        

 Vector    7  Occ=0.000000D+00  E= 1.524338D-01
              MO Center= -3.2D-14, -3.2D-11, -5.7D-01, r^2= 2.5D+00
   Bfn.  Coefficient  Atom+Function         Bfn.  Coefficient  Atom+Function  
  ----- ------------  ---------------      ----- ------------  ---------------
    17      1.302015  2 H  s                 19     -1.302015  3 H  s          
     8     -0.766887  1 O  py                 4     -0.409277  1 O  py         
    16      0.102144  2 H  s                 18     -0.102144  3 H  s          
    14      0.033329  1 O  dyz        

 Vector    8  Occ=0.000000D+00  E= 7.809690D-01
              MO Center=  1.1D-13,  2.3D-10, -1.3D-01, r^2= 1.6D+00
   Bfn.  Coefficient  Atom+Function         Bfn.  Coefficient  Atom+Function  
  ----- ------------  ---------------      ----- ------------  ---------------
    16      0.842158  2 H  s                 18     -0.842158  3 H  s          
    17     -0.616035  2 H  s                 19      0.616035  3 H  s          
     8     -0.478641  1 O  py                14     -0.341774  1 O  dyz        
     4     -0.167219  1 O  py         

 Vector    9  Occ=0.000000D+00  E= 8.697471D-01
              MO Center= -6.1D-12, -1.7D-10, -1.0D-01, r^2= 1.3D+00
   Bfn.  Coefficient  Atom+Function         Bfn.  Coefficient  Atom+Function  
  ----- ------------  ---------------      ----- ------------  ---------------
     5      0.763080  1 O  pz                16      0.661771  2 H  s          
    18      0.661771  3 H  s                 17     -0.498726  2 H  s          
    19     -0.498726  3 H  s                  9     -0.457710  1 O  pz         
    13      0.176180  1 O  dyy               10     -0.087798  1 O  dxx        
     2     -0.050668  1 O  s                  1      0.037472  1 O  s          

 Vector   10  Occ=0.000000D+00  E= 8.909162D-01
              MO Center= -7.4D-12, -2.8D-13,  1.1D-01, r^2= 1.1D+00
   Bfn.  Coefficient  Atom+Function         Bfn.  Coefficient  Atom+Function  
  ----- ------------  ---------------      ----- ------------  ---------------
     7     -1.038441  1 O  px                 3      0.959674  1 O  px         
    12      0.027986  1 O  dxz        

 Vector   11  Occ=0.000000D+00  E= 8.958240D-01
              MO Center=  1.2D-11, -2.3D-11,  2.2D-01, r^2= 1.5D+00
   Bfn.  Coefficient  Atom+Function         Bfn.  Coefficient  Atom+Function  
  ----- ------------  ---------------      ----- ------------  ---------------
     6      1.340728  1 O  s                  2     -0.819905  1 O  s          
     9      0.809141  1 O  pz                16      0.547048  2 H  s          
    18      0.547048  3 H  s                  5     -0.489240  1 O  pz         
    17     -0.410981  2 H  s                 19     -0.410981  3 H  s          
    10     -0.331658  1 O  dxx               15     -0.270112  1 O  dzz        

 Vector   12  Occ=0.000000D+00  E= 1.069377D+00
              MO Center= -2.8D-14, -4.2D-11,  8.7D-02, r^2= 1.5D+00
   Bfn.  Coefficient  Atom+Function         Bfn.  Coefficient  Atom+Function  
  ----- ------------  ---------------      ----- ------------  ---------------
     8      1.637715  1 O  py                 4     -0.993225  1 O  py         
    17     -0.954483  2 H  s                 19      0.954483  3 H  s          
    16      0.030179  2 H  s                 18     -0.030179  3 H  s          

 Vector   13  Occ=0.000000D+00  E= 1.192195D+00
              MO Center=  1.6D-12,  4.3D-11, -3.7D-01, r^2= 1.4D+00
   Bfn.  Coefficient  Atom+Function         Bfn.  Coefficient  Atom+Function  
  ----- ------------  ---------------      ----- ------------  ---------------
     6      3.662424  1 O  s                  2     -1.480168  1 O  s          
     9     -1.089809  1 O  pz                17     -0.800888  2 H  s          
    19     -0.800888  3 H  s                 13     -0.658884  1 O  dyy        
     5      0.392798  1 O  pz                15     -0.392455  1 O  dzz        
    16     -0.334824  2 H  s                 18     -0.334824  3 H  s          

 Vector   14  Occ=0.000000D+00  E= 1.729095D+00
              MO Center= -3.9D-15,  5.1D-13,  1.7D-01, r^2= 6.2D-01
   Bfn.  Coefficient  Atom+Function         Bfn.  Coefficient  Atom+Function  
  ----- ------------  ---------------      ----- ------------  ---------------
    15      1.009756  1 O  dzz               13     -0.580768  1 O  dyy        
    10     -0.360694  1 O  dxx                6     -0.262129  1 O  s          
     9      0.145934  1 O  pz                 2      0.091960  1 O  s          
    16      0.085455  2 H  s                 18      0.085455  3 H  s          
    17      0.044021  2 H  s                 19      0.044021  3 H  s          

 Vector   15  Occ=0.000000D+00  E= 1.743131D+00
              MO Center=  1.5D-13,  6.1D-13,  1.2D-01, r^2= 6.1D-01
   Bfn.  Coefficient  Atom+Function         Bfn.  Coefficient  Atom+Function  
  ----- ------------  ---------------      ----- ------------  ---------------
    11      1.732051  1 O  dxy        

 Vector   16  Occ=0.000000D+00  E= 1.779057D+00
              MO Center=  1.3D-13,  4.0D-13,  1.4D-01, r^2= 6.1D-01
   Bfn.  Coefficient  Atom+Function         Bfn.  Coefficient  Atom+Function  
  ----- ------------  ---------------      ----- ------------  ---------------
    12      1.730712  1 O  dxz                7      0.034950  1 O  px         

 Vector   17  Occ=0.000000D+00  E= 2.294698D+00
              MO Center=  2.0D-13,  6.4D-12,  2.6D-03, r^2= 8.3D-01
   Bfn.  Coefficient  Atom+Function         Bfn.  Coefficient  Atom+Function  
  ----- ------------  ---------------      ----- ------------  ---------------
     6      1.575143  1 O  s                 10     -1.130493  1 O  dxx        
    16     -0.832446  2 H  s                 18     -0.832446  3 H  s          
    13      0.756256  1 O  dyy                9     -0.746228  1 O  pz         
     2     -0.511610  1 O  s                 17     -0.148962  2 H  s          
    19     -0.148962  3 H  s                  1     -0.053242  1 O  s          

 Vector   18  Occ=0.000000D+00  E= 2.598371D+00
              MO Center=  1.1D-13, -2.0D-11,  6.5D-02, r^2= 8.7D-01
   Bfn.  Coefficient  Atom+Function         Bfn.  Coefficient  Atom+Function  
  ----- ------------  ---------------      ----- ------------  ---------------
    14      2.225871  1 O  dyz               16      0.948937  2 H  s          
    18     -0.948937  3 H  s                  8     -0.877041  1 O  py         
    17     -0.036955  2 H  s                 19      0.036955  3 H  s          
     4      0.025200  1 O  py         

 Vector   19  Occ=0.000000D+00  E= 3.559375D+00
              MO Center=  7.9D-14,  4.0D-12,  1.2D-01, r^2= 1.0D+00
   Bfn.  Coefficient  Atom+Function         Bfn.  Coefficient  Atom+Function  
  ----- ------------  ---------------      ----- ------------  ---------------
     6      3.719990  1 O  s                 10     -1.579677  1 O  dxx        
    15     -1.556214  1 O  dzz               13     -1.534847  1 O  dyy        
    17     -0.565822  2 H  s                 19     -0.565822  3 H  s          
     1     -0.469228  1 O  s                  9     -0.331421  1 O  pz         
     2      0.279236  1 O  s                 16      0.124584  2 H  s          


 center of mass
 --------------
 x =   0.00000000 y =   0.00000000 z =   0.09752365

 moments of inertia (a.u.)
 ------------------
           6.318513896020           0.000000000000           0.000000000000
           0.000000000000           2.194243005950           0.000000000000
           0.000000000000           0.000000000000           4.124270890070

     Multipole analysis of the density
     ---------------------------------

     L   x y z        total         alpha         beta         nuclear
     -   - - -        -----         -----         ----         -------
     0   0 0 0     -0.000000     -5.000000     -5.000000     10.000000

     1   1 0 0      0.000000      0.000000      0.000000      0.000000
     1   0 1 0     -0.000000     -0.000000     -0.000000      0.000000
     1   0 0 1     -0.817634     -0.408817     -0.408817      0.000000

     2   2 0 0     -5.338779     -2.669389     -2.669389      0.000000
     2   1 1 0     -0.000000     -0.000000     -0.000000      0.000000
     2   1 0 1     -0.000000     -0.000000     -0.000000      0.000000
     2   0 2 0     -3.169932     -3.631091     -3.631091      4.092249
     2   0 1 1      0.000000      0.000000      0.000000      0.000000
     2   0 0 2     -4.465916     -3.213588     -3.213588      1.961259


 Parallel integral file used       1 records with       0 large values


 Task  times  cpu:        0.5s     wall:        0.5s
 Summary of allocated global arrays
-----------------------------------
  No active global arrays



                         GA Statistics for process    0
                         ------------------------------

       create   destroy   get      put      acc     scatter   gather  read&inc
calls:  109      109     3816      536     2460        0        0      302     
number of processes/call 0.00e+00 0.00e+00 0.00e+00 0.00e+00 0.00e+00
bytes total:             1.86e+06 3.18e+05 1.07e+06 0.00e+00 0.00e+00 2.42e+03
bytes remote:            0.00e+00 0.00e+00 0.00e+00 0.00e+00 0.00e+00 0.00e+00
Max memory consumed for GA by this process: 112632 bytes
MA_summarize_allocated_blocks: starting scan ...
MA_summarize_allocated_blocks: scan completed: 0 heap blocks, 0 stack blocks
MA usage statistics:

	allocation statistics:
					      heap	     stack
					      ----	     -----
	current number of blocks	         0	         0
	maximum number of blocks	        21	        53
	current total bytes		         0	         0
	maximum total bytes		   3322488	  22510568
	maximum total K-bytes		      3323	     22511
	maximum total M-bytes		         4	        23


                                NWChem Input Module
                                -------------------





                                     CITATION
                                     --------
                Please cite the following reference when publishing
                           results obtained with NWChem:

                 M. Valiev, E.J. Bylaska, N. Govind, K. Kowalski,
              T.P. Straatsma, H.J.J. van Dam, D. Wang, J. Nieplocha,
                        E. Apra, T.L. Windus, W.A. de Jong
                 "NWChem: a comprehensive and scalable open-source
                  solution for large scale molecular simulations"
                      Comput. Phys. Commun. 181, 1477 (2010)
                           doi:10.1016/j.cpc.2010.04.018

                                      AUTHORS
                                      -------
     E. Apra, E. J. Bylaska, N. Govind, K. Kowalski, M. Valiev, W. A. de Jong,
      T. P. Straatsma, H. J. J. van Dam, D. Wang, T. L. Windus, N. P. Bauman,
       A. Panyala, J. Hammond, J. Autschbach, K. Bhaskaran-Nair, J. Brabec,
    K. Lopata, S. A. Fischer, S. Krishnamoorthy, M. Jacquelin, W. Ma, M. Klemm,
       O. Villa, Y. Chen, V. Anisimov, F. Aquino, S. Hirata, M. T. Hackler,
           Eric Hermes, L. Jensen, J. E. Moore, J. C. Becca, V. Konjkov,
            D. Mejia-Rodriguez, T. Risthaus, M. Malagoli, A. Marenich,
   A. Otero-de-la-Roza, J. Mullin, P. Nichols, R. Peverati, J. Pittner, Y. Zhao,
        P.-D. Fan, A. Fonari, M. J. Williamson, R. J. Harrison, J. R. Rehr,
      M. Dupuis, D. Silverstein, D. M. A. Smith, J. Nieplocha, V. Tipparaju,
      M. Krishnan, B. E. Van Kuiken, A. Vazquez-Mayagoitia, M. Swart, Q. Wu,
   T. Van Voorhis, A. A. Auer, M. Nooijen, L. D. Crosby, E. Brown, G. Cisneros,
     G. I. Fann, H. Fruchtl, J. Garza, K. Hirao, R. A. Kendall, J. A. Nichols,
       K. Tsemekhman, K. Wolinski, J. Anchell, D. E. Bernholdt, P. Borowski,
       T. Clark, D. Clerc, H. Dachsel, M. J. O. Deegan, K. Dyall, D. Elwood,
      E. Glendening, M. Gutowski, A. C. Hess, J. Jaffe, B. G. Johnson, J. Ju,
        R. Kobayashi, R. Kutteh, Z. Lin, R. Littlefield, X. Long, B. Meng,
      T. Nakajima, S. Niu, L. Pollack, M. Rosing, K. Glaesemann, G. Sandrone,
      M. Stave, H. Taylor, G. Thomas, J. H. van Lenthe, A. T. Wong, Z. Zhang.

 Total times  cpu:        0.5s     wall:        0.5s
